s -t 1.000000000 -Hs 0 -Hd -2 -Ni 0 -Nx 0.00 -Ny 100.00 -Nz 100.00 -Ne -1.000000 -Nl AGT -Nw --- -Ma 0 -Md 0 -Ms 0 -Mt 0 -Is 0.0 -Id 1.0 -It cbr -Il 512 -If 0 -Ii 0 -Iv 32 -Pn cbr -Pi 0 -Pf 0 -Po 0 
r -t 1.000000000 -Hs 0 -Hd -2 -Ni 0 -Nx 0.00 -Ny 100.00 -Nz 100.00 -Ne -1.000000 -Nl RTR -Nw --- -Ma 0 -Md 0 -Ms 0 -Mt 0 -Is 0.0 -Id 1.0 -It cbr -Il 512 -If 0 -Ii 0 -Iv 32 -Pn cbr -Pi 0 -Pf 0 -Po 0 
s -t 1.000000000 -Hs 3 -Hd -2 -Ni 3 -Nx 0.00 -Ny 800.00 -Nz 100.00 -Ne -1.000000 -Nl AGT -Nw --- -Ma 0 -Md 0 -Ms 0 -Mt 0 -Is 3.0 -Id 2.0 -It cbr -Il 512 -If 1 -Ii 1 -Iv 32 -Pn cbr -Pi 0 -Pf 0 -Po 0 
r -t 1.000000000 -Hs 3 -Hd -2 -Ni 3 -Nx 0.00 -Ny 800.00 -Nz 100.00 -Ne -1.000000 -Nl RTR -Nw --- -Ma 0 -Md 0 -Ms 0 -Mt 0 -Is 3.0 -Id 2.0 -It cbr -Il 512 -If 1 -Ii 1 -Iv 32 -Pn cbr -Pi 0 -Pf 0 -Po 0 
s -t 1.000000000 -Hs 0 -Hd -2 -Ni 0 -Nx 0.00 -Ny 100.00 -Nz 100.00 -Ne -1.000000 -Nl RTR -Nw --- -Ma 0 -Md 0 -Ms 0 -Mt 0 -Is 0.255 -Id -1.255 -It AODV -Il 48 -If 0 -Ii 0 -Iv 30 -P aodv -Pt 0x2 -Ph 1 -Pb 1 -Pd 1 -Pds 0 -Ps 0 -Pss 4 -Pc REQUEST 
s -t 1.000000000 -Hs 3 -Hd -2 -Ni 3 -Nx 0.00 -Ny 800.00 -Nz 100.00 -Ne -1.000000 -Nl RTR -Nw --- -Ma 0 -Md 0 -Ms 0 -Mt 0 -Is 3.255 -Id -1.255 -It AODV -Il 48 -If 0 -Ii 0 -Iv 30 -P aodv -Pt 0x2 -Ph 1 -Pb 1 -Pd 2 -Pds 0 -Ps 3 -Pss 4 -Pc REQUEST 
s -t 1.000115000 -Hs 3 -Hd -2 -Ni 3 -Nx 0.00 -Ny 800.00 -Nz 100.00 -Ne -1.000000 -Nl MAC -Nw --- -Ma 0 -Md ffffffff -Ms 3 -Mt 800 -Is 3.255 -Id -1.255 -It AODV -Il 106 -If 0 -Ii 0 -Iv 30 -P aodv -Pt 0x2 -Ph 1 -Pb 1 -Pd 2 -Pds 0 -Ps 3 -Pss 4 -Pc REQUEST 
s -t 1.000535000 -Hs 0 -Hd -2 -Ni 0 -Nx 0.00 -Ny 100.00 -Nz 100.00 -Ne -1.000000 -Nl MAC -Nw --- -Ma 0 -Md ffffffff -Ms 0 -Mt 800 -Is 0.255 -Id -1.255 -It AODV -Il 106 -If 0 -Ii 0 -Iv 30 -P aodv -Pt 0x2 -Ph 1 -Pb 1 -Pd 1 -Pds 0 -Ps 0 -Pss 4 -Pc REQUEST 
r -t 1.000964000 -Hs 2 -Hd -2 -Ni 2 -Nx 300.00 -Ny 800.00 -Nz 100.00 -Ne -1.000000 -Nl MAC -Nw --- -Ma 0 -Md ffffffff -Ms 3 -Mt 800 -Is 3.255 -Id -1.255 -It AODV -Il 48 -If 0 -Ii 0 -Iv 30 -P aodv -Pt 0x2 -Ph 1 -Pb 1 -Pd 2 -Pds 0 -Ps 3 -Pss 4 -Pc REQUEST 
r -t 1.000989000 -Hs 2 -Hd -2 -Ni 2 -Nx 300.00 -Ny 800.00 -Nz 100.00 -Ne -1.000000 -Nl RTR -Nw --- -Ma 0 -Md ffffffff -Ms 3 -Mt 800 -Is 3.255 -Id -1.255 -It AODV -Il 48 -If 0 -Ii 0 -Iv 30 -P aodv -Pt 0x2 -Ph 1 -Pb 1 -Pd 2 -Pds 0 -Ps 3 -Pss 4 -Pc REQUEST 
s -t 1.000989000 -Hs 2 -Hd 3 -Ni 2 -Nx 300.00 -Ny 800.00 -Nz 100.00 -Ne -1.000000 -Nl RTR -Nw --- -Ma 0 -Md 0 -Ms 0 -Mt 0 -Is 2.255 -Id 3.255 -It AODV -Il 44 -If 0 -Ii 0 -Iv 30 -P aodv -Pt 0x4 -Ph 1 -Pd 2 -Pds 4 -Pl 10.000000 -Pc REPLY 
s -t 1.001344000 -Hs 2 -Hd -2 -Ni 2 -Nx 300.00 -Ny 800.00 -Nz 100.00 -Ne -1.000000 -Nl MAC -Nw --- -Ma 0 -Md ffffffff -Ms 2 -Mt 806 -P arp -Po REQUEST -Pms 2 -Ps 2 -Pmd 0 -Pd 3 
r -t 1.001384000 -Hs 1 -Hd -2 -Ni 1 -Nx 300.00 -Ny 100.00 -Nz 100.00 -Ne -1.000000 -Nl MAC -Nw --- -Ma 0 -Md ffffffff -Ms 0 -Mt 800 -Is 0.255 -Id -1.255 -It AODV -Il 48 -If 0 -Ii 0 -Iv 30 -P aodv -Pt 0x2 -Ph 1 -Pb 1 -Pd 1 -Pds 0 -Ps 0 -Pss 4 -Pc REQUEST 
r -t 1.001409000 -Hs 1 -Hd -2 -Ni 1 -Nx 300.00 -Ny 100.00 -Nz 100.00 -Ne -1.000000 -Nl RTR -Nw --- -Ma 0 -Md ffffffff -Ms 0 -Mt 800 -Is 0.255 -Id -1.255 -It AODV -Il 48 -If 0 -Ii 0 -Iv 30 -P aodv -Pt 0x2 -Ph 1 -Pb 1 -Pd 1 -Pds 0 -Ps 0 -Pss 4 -Pc REQUEST 
s -t 1.001409000 -Hs 1 -Hd 0 -Ni 1 -Nx 300.00 -Ny 100.00 -Nz 100.00 -Ne -1.000000 -Nl RTR -Nw --- -Ma 0 -Md 0 -Ms 0 -Mt 0 -Is 1.255 -Id 0.255 -It AODV -Il 44 -If 0 -Ii 0 -Iv 30 -P aodv -Pt 0x4 -Ph 1 -Pd 1 -Pds 4 -Pl 10.000000 -Pc REPLY 
s -t 1.001464000 -Hs 1 -Hd -2 -Ni 1 -Nx 300.00 -Ny 100.00 -Nz 100.00 -Ne -1.000000 -Nl MAC -Nw --- -Ma 0 -Md ffffffff -Ms 1 -Mt 806 -P arp -Po REQUEST -Pms 1 -Ps 1 -Pmd 0 -Pd 0 
r -t 1.002033000 -Hs 3 -Hd -2 -Ni 3 -Nx 0.00 -Ny 800.00 -Nz 100.00 -Ne -1.000000 -Nl MAC -Nw --- -Ma 0 -Md ffffffff -Ms 2 -Mt 806 -P arp -Po REQUEST -Pms 2 -Ps 2 -Pmd 0 -Pd 3 
r -t 1.002153000 -Hs 0 -Hd -2 -Ni 0 -Nx 0.00 -Ny 100.00 -Nz 100.00 -Ne -1.000000 -Nl MAC -Nw --- -Ma 0 -Md ffffffff -Ms 1 -Mt 806 -P arp -Po REQUEST -Pms 1 -Ps 1 -Pmd 0 -Pd 0 
s -t 1.002323000 -Hs 3 -Hd -2 -Ni 3 -Nx 0.00 -Ny 800.00 -Nz 100.00 -Ne -1.000000 -Nl MAC -Nw --- -Ma 52e -Md 2 -Ms 3 -Mt 0 
s -t 1.002503000 -Hs 0 -Hd -2 -Ni 0 -Nx 0.00 -Ny 100.00 -Nz 100.00 -Ne -1.000000 -Nl MAC -Nw --- -Ma 52e -Md 1 -Ms 0 -Mt 0 
r -t 1.002676000 -Hs 2 -Hd -2 -Ni 2 -Nx 300.00 -Ny 800.00 -Nz 100.00 -Ne -1.000000 -Nl MAC -Nw --- -Ma 52e -Md 2 -Ms 3 -Mt 0 
s -t 1.002686000 -Hs 2 -Hd -2 -Ni 2 -Nx 300.00 -Ny 800.00 -Nz 100.00 -Ne -1.000000 -Nl MAC -Nw --- -Ma 3f4 -Md 3 -Ms 0 -Mt 0 
r -t 1.002856000 -Hs 1 -Hd -2 -Ni 1 -Nx 300.00 -Ny 100.00 -Nz 100.00 -Ne -1.000000 -Nl MAC -Nw --- -Ma 52e -Md 1 -Ms 0 -Mt 0 
s -t 1.002866000 -Hs 1 -Hd -2 -Ni 1 -Nx 300.00 -Ny 100.00 -Nz 100.00 -Ne -1.000000 -Nl MAC -Nw --- -Ma 3f4 -Md 0 -Ms 0 -Mt 0 
r -t 1.002991000 -Hs 3 -Hd -2 -Ni 3 -Nx 0.00 -Ny 800.00 -Nz 100.00 -Ne -1.000000 -Nl MAC -Nw --- -Ma 3f4 -Md 3 -Ms 0 -Mt 0 
s -t 1.003001000 -Hs 3 -Hd -2 -Ni 3 -Nx 0.00 -Ny 800.00 -Nz 100.00 -Ne -1.000000 -Nl MAC -Nw --- -Ma 13a -Md 2 -Ms 3 -Mt 806 -P arp -Po REPLY -Pms 3 -Ps 3 -Pmd 2 -Pd 2 
r -t 1.003171000 -Hs 0 -Hd -2 -Ni 0 -Nx 0.00 -Ny 100.00 -Nz 100.00 -Ne -1.000000 -Nl MAC -Nw --- -Ma 3f4 -Md 0 -Ms 0 -Mt 0 
s -t 1.003181000 -Hs 0 -Hd -2 -Ni 0 -Nx 0.00 -Ny 100.00 -Nz 100.00 -Ne -1.000000 -Nl MAC -Nw --- -Ma 13a -Md 1 -Ms 0 -Mt 806 -P arp -Po REPLY -Pms 0 -Ps 0 -Pmd 1 -Pd 1 
r -t 1.003690000 -Hs 2 -Hd -2 -Ni 2 -Nx 300.00 -Ny 800.00 -Nz 100.00 -Ne -1.000000 -Nl MAC -Nw --- -Ma 13a -Md 2 -Ms 3 -Mt 806 -P arp -Po REPLY -Pms 3 -Ps 3 -Pmd 2 -Pd 2 
s -t 1.003700000 -Hs 2 -Hd -2 -Ni 2 -Nx 300.00 -Ny 800.00 -Nz 100.00 -Ne -1.000000 -Nl MAC -Nw --- -Ma 0 -Md 3 -Ms 0 -Mt 0 
r -t 1.003870000 -Hs 1 -Hd -2 -Ni 1 -Nx 300.00 -Ny 100.00 -Nz 100.00 -Ne -1.000000 -Nl MAC -Nw --- -Ma 13a -Md 1 -Ms 0 -Mt 806 -P arp -Po REPLY -Pms 0 -Ps 0 -Pmd 1 -Pd 1 
s -t 1.003880000 -Hs 1 -Hd -2 -Ni 1 -Nx 300.00 -Ny 100.00 -Nz 100.00 -Ne -1.000000 -Nl MAC -Nw --- -Ma 0 -Md 0 -Ms 0 -Mt 0 
r -t 1.004005000 -Hs 3 -Hd -2 -Ni 3 -Nx 0.00 -Ny 800.00 -Nz 100.00 -Ne -1.000000 -Nl MAC -Nw --- -Ma 0 -Md 3 -Ms 0 -Mt 0 
r -t 1.004185000 -Hs 0 -Hd -2 -Ni 0 -Nx 0.00 -Ny 100.00 -Nz 100.00 -Ne -1.000000 -Nl MAC -Nw --- -Ma 0 -Md 0 -Ms 0 -Mt 0 
s -t 1.004294000 -Hs 2 -Hd -2 -Ni 2 -Nx 300.00 -Ny 800.00 -Nz 100.00 -Ne -1.000000 -Nl MAC -Nw --- -Ma 5ae -Md 3 -Ms 2 -Mt 0 
s -t 1.004494000 -Hs 1 -Hd -2 -Ni 1 -Nx 300.00 -Ny 100.00 -Nz 100.00 -Ne -1.000000 -Nl MAC -Nw --- -Ma 5ae -Md 0 -Ms 1 -Mt 0 
r -t 1.004647000 -Hs 3 -Hd -2 -Ni 3 -Nx 0.00 -Ny 800.00 -Nz 100.00 -Ne -1.000000 -Nl MAC -Nw --- -Ma 5ae -Md 3 -Ms 2 -Mt 0 
s -t 1.004657000 -Hs 3 -Hd -2 -Ni 3 -Nx 0.00 -Ny 800.00 -Nz 100.00 -Ne -1.000000 -Nl MAC -Nw --- -Ma 474 -Md 2 -Ms 0 -Mt 0 
r -t 1.004847000 -Hs 0 -Hd -2 -Ni 0 -Nx 0.00 -Ny 100.00 -Nz 100.00 -Ne -1.000000 -Nl MAC -Nw --- -Ma 5ae -Md 0 -Ms 1 -Mt 0 
s -t 1.004857000 -Hs 0 -Hd -2 -Ni 0 -Nx 0.00 -Ny 100.00 -Nz 100.00 -Ne -1.000000 -Nl MAC -Nw --- -Ma 474 -Md 1 -Ms 0 -Mt 0 
r -t 1.004962000 -Hs 2 -Hd -2 -Ni 2 -Nx 300.00 -Ny 800.00 -Nz 100.00 -Ne -1.000000 -Nl MAC -Nw --- -Ma 474 -Md 2 -Ms 0 -Mt 0 
s -t 1.004972000 -Hs 2 -Hd 3 -Ni 2 -Nx 300.00 -Ny 800.00 -Nz 100.00 -Ne -1.000000 -Nl MAC -Nw --- -Ma 13a -Md 3 -Ms 2 -Mt 800 -Is 2.255 -Id 3.255 -It AODV -Il 102 -If 0 -Ii 0 -Iv 30 -P aodv -Pt 0x4 -Ph 1 -Pd 2 -Pds 4 -Pl 10.000000 -Pc REPLY 
r -t 1.005162000 -Hs 1 -Hd -2 -Ni 1 -Nx 300.00 -Ny 100.00 -Nz 100.00 -Ne -1.000000 -Nl MAC -Nw --- -Ma 474 -Md 1 -Ms 0 -Mt 0 
s -t 1.005172000 -Hs 1 -Hd 0 -Ni 1 -Nx 300.00 -Ny 100.00 -Nz 100.00 -Ne -1.000000 -Nl MAC -Nw --- -Ma 13a -Md 0 -Ms 1 -Mt 800 -Is 1.255 -Id 0.255 -It AODV -Il 102 -If 0 -Ii 0 -Iv 30 -P aodv -Pt 0x4 -Ph 1 -Pd 1 -Pds 4 -Pl 10.000000 -Pc REPLY 
r -t 1.005789000 -Hs 3 -Hd 3 -Ni 3 -Nx 0.00 -Ny 800.00 -Nz 100.00 -Ne -1.000000 -Nl MAC -Nw --- -Ma 13a -Md 3 -Ms 2 -Mt 800 -Is 2.255 -Id 3.255 -It AODV -Il 44 -If 0 -Ii 0 -Iv 30 -P aodv -Pt 0x4 -Ph 1 -Pd 2 -Pds 4 -Pl 10.000000 -Pc REPLY 
s -t 1.005799000 -Hs 3 -Hd -2 -Ni 3 -Nx 0.00 -Ny 800.00 -Nz 100.00 -Ne -1.000000 -Nl MAC -Nw --- -Ma 0 -Md 2 -Ms 0 -Mt 0 
r -t 1.005814000 -Hs 3 -Hd 3 -Ni 3 -Nx 0.00 -Ny 800.00 -Nz 100.00 -Ne -1.000000 -Nl RTR -Nw --- -Ma 13a -Md 3 -Ms 2 -Mt 800 -Is 2.255 -Id 3.255 -It AODV -Il 44 -If 0 -Ii 0 -Iv 30 -P aodv -Pt 0x4 -Ph 1 -Pd 2 -Pds 4 -Pl 10.000000 -Pc REPLY 
s -t 1.005814000 -Hs 3 -Hd 2 -Ni 3 -Nx 0.00 -Ny 800.00 -Nz 100.00 -Ne -1.000000 -Nl RTR -Nw --- -Ma 0 -Md 0 -Ms 0 -Mt 0 -Is 3.0 -Id 2.0 -It cbr -Il 532 -If 1 -Ii 1 -Iv 30 -Pn cbr -Pi 0 -Pf 0 -Po 0 
r -t 1.005989000 -Hs 0 -Hd 0 -Ni 0 -Nx 0.00 -Ny 100.00 -Nz 100.00 -Ne -1.000000 -Nl MAC -Nw --- -Ma 13a -Md 0 -Ms 1 -Mt 800 -Is 1.255 -Id 0.255 -It AODV -Il 44 -If 0 -Ii 0 -Iv 30 -P aodv -Pt 0x4 -Ph 1 -Pd 1 -Pds 4 -Pl 10.000000 -Pc REPLY 
s -t 1.005999000 -Hs 0 -Hd -2 -Ni 0 -Nx 0.00 -Ny 100.00 -Nz 100.00 -Ne -1.000000 -Nl MAC -Nw --- -Ma 0 -Md 1 -Ms 0 -Mt 0 
r -t 1.006014000 -Hs 0 -Hd 0 -Ni 0 -Nx 0.00 -Ny 100.00 -Nz 100.00 -Ne -1.000000 -Nl RTR -Nw --- -Ma 13a -Md 0 -Ms 1 -Mt 800 -Is 1.255 -Id 0.255 -It AODV -Il 44 -If 0 -Ii 0 -Iv 30 -P aodv -Pt 0x4 -Ph 1 -Pd 1 -Pds 4 -Pl 10.000000 -Pc REPLY 
s -t 1.006014000 -Hs 0 -Hd 1 -Ni 0 -Nx 0.00 -Ny 100.00 -Nz 100.00 -Ne -1.000000 -Nl RTR -Nw --- -Ma 0 -Md 0 -Ms 0 -Mt 0 -Is 0.0 -Id 1.0 -It cbr -Il 532 -If 0 -Ii 0 -Iv 30 -Pn cbr -Pi 0 -Pf 0 -Po 0 
r -t 1.006104000 -Hs 2 -Hd -2 -Ni 2 -Nx 300.00 -Ny 800.00 -Nz 100.00 -Ne -1.000000 -Nl MAC -Nw --- -Ma 0 -Md 2 -Ms 0 -Mt 0 
s -t 1.006293000 -Hs 3 -Hd -2 -Ni 3 -Nx 0.00 -Ny 800.00 -Nz 100.00 -Ne -1.000000 -Nl MAC -Nw --- -Ma 14ee -Md 2 -Ms 3 -Mt 0 
r -t 1.006304000 -Hs 1 -Hd -2 -Ni 1 -Nx 300.00 -Ny 100.00 -Nz 100.00 -Ne -1.000000 -Nl MAC -Nw --- -Ma 0 -Md 1 -Ms 0 -Mt 0 
s -t 1.006393000 -Hs 0 -Hd -2 -Ni 0 -Nx 0.00 -Ny 100.00 -Nz 100.00 -Ne -1.000000 -Nl MAC -Nw --- -Ma 14ee -Md 1 -Ms 0 -Mt 0 
r -t 1.006646000 -Hs 2 -Hd -2 -Ni 2 -Nx 300.00 -Ny 800.00 -Nz 100.00 -Ne -1.000000 -Nl MAC -Nw --- -Ma 14ee -Md 2 -Ms 3 -Mt 0 
s -t 1.006656000 -Hs 2 -Hd -2 -Ni 2 -Nx 300.00 -Ny 800.00 -Nz 100.00 -Ne -1.000000 -Nl MAC -Nw --- -Ma 13b4 -Md 3 -Ms 0 -Mt 0 
r -t 1.006746000 -Hs 1 -Hd -2 -Ni 1 -Nx 300.00 -Ny 100.00 -Nz 100.00 -Ne -1.000000 -Nl MAC -Nw --- -Ma 14ee -Md 1 -Ms 0 -Mt 0 
s -t 1.006756000 -Hs 1 -Hd -2 -Ni 1 -Nx 300.00 -Ny 100.00 -Nz 100.00 -Ne -1.000000 -Nl MAC -Nw --- -Ma 13b4 -Md 0 -Ms 0 -Mt 0 
r -t 1.006961000 -Hs 3 -Hd -2 -Ni 3 -Nx 0.00 -Ny 800.00 -Nz 100.00 -Ne -1.000000 -Nl MAC -Nw --- -Ma 13b4 -Md 3 -Ms 0 -Mt 0 
s -t 1.006971000 -Hs 3 -Hd 2 -Ni 3 -Nx 0.00 -Ny 800.00 -Nz 100.00 -Ne -1.000000 -Nl MAC -Nw --- -Ma 13a -Md 2 -Ms 3 -Mt 800 -Is 3.0 -Id 2.0 -It cbr -Il 590 -If 1 -Ii 1 -Iv 30 -Pn cbr -Pi 0 -Pf 0 -Po 0 
r -t 1.007061000 -Hs 0 -Hd -2 -Ni 0 -Nx 0.00 -Ny 100.00 -Nz 100.00 -Ne -1.000000 -Nl MAC -Nw --- -Ma 13b4 -Md 0 -Ms 0 -Mt 0 
s -t 1.007071000 -Hs 0 -Hd 1 -Ni 0 -Nx 0.00 -Ny 100.00 -Nz 100.00 -Ne -1.000000 -Nl MAC -Nw --- -Ma 13a -Md 1 -Ms 0 -Mt 800 -Is 0.0 -Id 1.0 -It cbr -Il 590 -If 0 -Ii 0 -Iv 30 -Pn cbr -Pi 0 -Pf 0 -Po 0 
s -t 1.010000000 -Hs 0 -Hd -2 -Ni 0 -Nx 0.00 -Ny 100.00 -Nz 100.00 -Ne -1.000000 -Nl AGT -Nw --- -Ma 0 -Md 0 -Ms 0 -Mt 0 -Is 0.0 -Id 1.0 -It cbr -Il 512 -If 0 -Ii 2 -Iv 32 -Pn cbr -Pi 1 -Pf 0 -Po 0 
r -t 1.010000000 -Hs 0 -Hd -2 -Ni 0 -Nx 0.00 -Ny 100.00 -Nz 100.00 -Ne -1.000000 -Nl RTR -Nw --- -Ma 0 -Md 0 -Ms 0 -Mt 0 -Is 0.0 -Id 1.0 -It cbr -Il 512 -If 0 -Ii 2 -Iv 32 -Pn cbr -Pi 1 -Pf 0 -Po 0 
s -t 1.010000000 -Hs 3 -Hd -2 -Ni 3 -Nx 0.00 -Ny 800.00 -Nz 100.00 -Ne -1.000000 -Nl AGT -Nw --- -Ma 0 -Md 0 -Ms 0 -Mt 0 -Is 3.0 -Id 2.0 -It cbr -Il 512 -If 1 -Ii 3 -Iv 32 -Pn cbr -Pi 1 -Pf 0 -Po 0 
r -t 1.010000000 -Hs 3 -Hd -2 -Ni 3 -Nx 0.00 -Ny 800.00 -Nz 100.00 -Ne -1.000000 -Nl RTR -Nw --- -Ma 0 -Md 0 -Ms 0 -Mt 0 -Is 3.0 -Id 2.0 -It cbr -Il 512 -If 1 -Ii 3 -Iv 32 -Pn cbr -Pi 1 -Pf 0 -Po 0 
s -t 1.010000000 -Hs 0 -Hd 1 -Ni 0 -Nx 0.00 -Ny 100.00 -Nz 100.00 -Ne -1.000000 -Nl RTR -Nw --- -Ma 0 -Md 0 -Ms 0 -Mt 0 -Is 0.0 -Id 1.0 -It cbr -Il 532 -If 0 -Ii 2 -Iv 30 -Pn cbr -Pi 1 -Pf 0 -Po 0 
s -t 1.010000000 -Hs 3 -Hd 2 -Ni 3 -Nx 0.00 -Ny 800.00 -Nz 100.00 -Ne -1.000000 -Nl RTR -Nw --- -Ma 0 -Md 0 -Ms 0 -Mt 0 -Is 3.0 -Id 2.0 -It cbr -Il 532 -If 1 -Ii 3 -Iv 30 -Pn cbr -Pi 1 -Pf 0 -Po 0 
r -t 1.011692000 -Hs 2 -Hd 2 -Ni 2 -Nx 300.00 -Ny 800.00 -Nz 100.00 -Ne -1.000000 -Nl MAC -Nw --- -Ma 13a -Md 2 -Ms 3 -Mt 800 -Is 3.0 -Id 2.0 -It cbr -Il 532 -If 1 -Ii 1 -Iv 30 -Pn cbr -Pi 0 -Pf 1 -Po 0 
s -t 1.011702000 -Hs 2 -Hd -2 -Ni 2 -Nx 300.00 -Ny 800.00 -Nz 100.00 -Ne -1.000000 -Nl MAC -Nw --- -Ma 0 -Md 3 -Ms 0 -Mt 0 
r -t 1.011717000 -Hs 2 -Hd 2 -Ni 2 -Nx 300.00 -Ny 800.00 -Nz 100.00 -Ne -1.000000 -Nl AGT -Nw --- -Ma 13a -Md 2 -Ms 3 -Mt 800 -Is 3.0 -Id 2.0 -It cbr -Il 532 -If 1 -Ii 1 -Iv 30 -Pn cbr -Pi 0 -Pf 1 -Po 0 
r -t 1.011792000 -Hs 1 -Hd 1 -Ni 1 -Nx 300.00 -Ny 100.00 -Nz 100.00 -Ne -1.000000 -Nl MAC -Nw --- -Ma 13a -Md 1 -Ms 0 -Mt 800 -Is 0.0 -Id 1.0 -It cbr -Il 532 -If 0 -Ii 0 -Iv 30 -Pn cbr -Pi 0 -Pf 1 -Po 0 
s -t 1.011802000 -Hs 1 -Hd -2 -Ni 1 -Nx 300.00 -Ny 100.00 -Nz 100.00 -Ne -1.000000 -Nl MAC -Nw --- -Ma 0 -Md 0 -Ms 0 -Mt 0 
r -t 1.011817000 -Hs 1 -Hd 1 -Ni 1 -Nx 300.00 -Ny 100.00 -Nz 100.00 -Ne -1.000000 -Nl AGT -Nw --- -Ma 13a -Md 1 -Ms 0 -Mt 800 -Is 0.0 -Id 1.0 -It cbr -Il 532 -If 0 -Ii 0 -Iv 30 -Pn cbr -Pi 0 -Pf 1 -Po 0 
r -t 1.012007000 -Hs 3 -Hd -2 -Ni 3 -Nx 0.00 -Ny 800.00 -Nz 100.00 -Ne -1.000000 -Nl MAC -Nw --- -Ma 0 -Md 3 -Ms 0 -Mt 0 
r -t 1.012107000 -Hs 0 -Hd -2 -Ni 0 -Nx 0.00 -Ny 100.00 -Nz 100.00 -Ne -1.000000 -Nl MAC -Nw --- -Ma 0 -Md 0 -Ms 0 -Mt 0 
s -t 1.012397000 -Hs 0 -Hd -2 -Ni 0 -Nx 0.00 -Ny 100.00 -Nz 100.00 -Ne -1.000000 -Nl MAC -Nw --- -Ma 14ee -Md 1 -Ms 0 -Mt 0 
s -t 1.012417000 -Hs 3 -Hd -2 -Ni 3 -Nx 0.00 -Ny 800.00 -Nz 100.00 -Ne -1.000000 -Nl MAC -Nw --- -Ma 14ee -Md 2 -Ms 3 -Mt 0 
r -t 1.012750000 -Hs 1 -Hd -2 -Ni 1 -Nx 300.00 -Ny 100.00 -Nz 100.00 -Ne -1.000000 -Nl MAC -Nw --- -Ma 14ee -Md 1 -Ms 0 -Mt 0 
s -t 1.012760000 -Hs 1 -Hd -2 -Ni 1 -Nx 300.00 -Ny 100.00 -Nz 100.00 -Ne -1.000000 -Nl MAC -Nw --- -Ma 13b4 -Md 0 -Ms 0 -Mt 0 
r -t 1.012770000 -Hs 2 -Hd -2 -Ni 2 -Nx 300.00 -Ny 800.00 -Nz 100.00 -Ne -1.000000 -Nl MAC -Nw --- -Ma 14ee -Md 2 -Ms 3 -Mt 0 
s -t 1.012780000 -Hs 2 -Hd -2 -Ni 2 -Nx 300.00 -Ny 800.00 -Nz 100.00 -Ne -1.000000 -Nl MAC -Nw --- -Ma 13b4 -Md 3 -Ms 0 -Mt 0 
r -t 1.013065000 -Hs 0 -Hd -2 -Ni 0 -Nx 0.00 -Ny 100.00 -Nz 100.00 -Ne -1.000000 -Nl MAC -Nw --- -Ma 13b4 -Md 0 -Ms 0 -Mt 0 
s -t 1.013075000 -Hs 0 -Hd 1 -Ni 0 -Nx 0.00 -Ny 100.00 -Nz 100.00 -Ne -1.000000 -Nl MAC -Nw --- -Ma 13a -Md 1 -Ms 0 -Mt 800 -Is 0.0 -Id 1.0 -It cbr -Il 590 -If 0 -Ii 2 -Iv 30 -Pn cbr -Pi 1 -Pf 0 -Po 0 
r -t 1.013085000 -Hs 3 -Hd -2 -Ni 3 -Nx 0.00 -Ny 800.00 -Nz 100.00 -Ne -1.000000 -Nl MAC -Nw --- -Ma 13b4 -Md 3 -Ms 0 -Mt 0 
s -t 1.013095000 -Hs 3 -Hd 2 -Ni 3 -Nx 0.00 -Ny 800.00 -Nz 100.00 -Ne -1.000000 -Nl MAC -Nw --- -Ma 13a -Md 2 -Ms 3 -Mt 800 -Is 3.0 -Id 2.0 -It cbr -Il 590 -If 1 -Ii 3 -Iv 30 -Pn cbr -Pi 1 -Pf 0 -Po 0 
r -t 1.017796000 -Hs 1 -Hd 1 -Ni 1 -Nx 300.00 -Ny 100.00 -Nz 100.00 -Ne -1.000000 -Nl MAC -Nw --- -Ma 13a -Md 1 -Ms 0 -Mt 800 -Is 0.0 -Id 1.0 -It cbr -Il 532 -If 0 -Ii 2 -Iv 30 -Pn cbr -Pi 1 -Pf 1 -Po 0 
s -t 1.017806000 -Hs 1 -Hd -2 -Ni 1 -Nx 300.00 -Ny 100.00 -Nz 100.00 -Ne -1.000000 -Nl MAC -Nw --- -Ma 0 -Md 0 -Ms 0 -Mt 0 
r -t 1.017816000 -Hs 2 -Hd 2 -Ni 2 -Nx 300.00 -Ny 800.00 -Nz 100.00 -Ne -1.000000 -Nl MAC -Nw --- -Ma 13a -Md 2 -Ms 3 -Mt 800 -Is 3.0 -Id 2.0 -It cbr -Il 532 -If 1 -Ii 3 -Iv 30 -Pn cbr -Pi 1 -Pf 1 -Po 0 
r -t 1.017821000 -Hs 1 -Hd 1 -Ni 1 -Nx 300.00 -Ny 100.00 -Nz 100.00 -Ne -1.000000 -Nl AGT -Nw --- -Ma 13a -Md 1 -Ms 0 -Mt 800 -Is 0.0 -Id 1.0 -It cbr -Il 532 -If 0 -Ii 2 -Iv 30 -Pn cbr -Pi 1 -Pf 1 -Po 0 
s -t 1.017826000 -Hs 2 -Hd -2 -Ni 2 -Nx 300.00 -Ny 800.00 -Nz 100.00 -Ne -1.000000 -Nl MAC -Nw --- -Ma 0 -Md 3 -Ms 0 -Mt 0 
r -t 1.017841000 -Hs 2 -Hd 2 -Ni 2 -Nx 300.00 -Ny 800.00 -Nz 100.00 -Ne -1.000000 -Nl AGT -Nw --- -Ma 13a -Md 2 -Ms 3 -Mt 800 -Is 3.0 -Id 2.0 -It cbr -Il 532 -If 1 -Ii 3 -Iv 30 -Pn cbr -Pi 1 -Pf 1 -Po 0 
r -t 1.018111000 -Hs 0 -Hd -2 -Ni 0 -Nx 0.00 -Ny 100.00 -Nz 100.00 -Ne -1.000000 -Nl MAC -Nw --- -Ma 0 -Md 0 -Ms 0 -Mt 0 
r -t 1.018131000 -Hs 3 -Hd -2 -Ni 3 -Nx 0.00 -Ny 800.00 -Nz 100.00 -Ne -1.000000 -Nl MAC -Nw --- -Ma 0 -Md 3 -Ms 0 -Mt 0 
s -t 1.020000000 -Hs 0 -Hd -2 -Ni 0 -Nx 0.00 -Ny 100.00 -Nz 100.00 -Ne -1.000000 -Nl AGT -Nw --- -Ma 0 -Md 0 -Ms 0 -Mt 0 -Is 0.0 -Id 1.0 -It cbr -Il 512 -If 0 -Ii 4 -Iv 32 -Pn cbr -Pi 2 -Pf 0 -Po 0 
r -t 1.020000000 -Hs 0 -Hd -2 -Ni 0 -Nx 0.00 -Ny 100.00 -Nz 100.00 -Ne -1.000000 -Nl RTR -Nw --- -Ma 0 -Md 0 -Ms 0 -Mt 0 -Is 0.0 -Id 1.0 -It cbr -Il 512 -If 0 -Ii 4 -Iv 32 -Pn cbr -Pi 2 -Pf 0 -Po 0 
s -t 1.020000000 -Hs 3 -Hd -2 -Ni 3 -Nx 0.00 -Ny 800.00 -Nz 100.00 -Ne -1.000000 -Nl AGT -Nw --- -Ma 0 -Md 0 -Ms 0 -Mt 0 -Is 3.0 -Id 2.0 -It cbr -Il 512 -If 1 -Ii 5 -Iv 32 -Pn cbr -Pi 2 -Pf 0 -Po 0 
r -t 1.020000000 -Hs 3 -Hd -2 -Ni 3 -Nx 0.00 -Ny 800.00 -Nz 100.00 -Ne -1.000000 -Nl RTR -Nw --- -Ma 0 -Md 0 -Ms 0 -Mt 0 -Is 3.0 -Id 2.0 -It cbr -Il 512 -If 1 -Ii 5 -Iv 32 -Pn cbr -Pi 2 -Pf 0 -Po 0 
s -t 1.020000000 -Hs 0 -Hd 1 -Ni 0 -Nx 0.00 -Ny 100.00 -Nz 100.00 -Ne -1.000000 -Nl RTR -Nw --- -Ma 0 -Md 0 -Ms 0 -Mt 0 -Is 0.0 -Id 1.0 -It cbr -Il 532 -If 0 -Ii 4 -Iv 30 -Pn cbr -Pi 2 -Pf 0 -Po 0 
s -t 1.020000000 -Hs 3 -Hd 2 -Ni 3 -Nx 0.00 -Ny 800.00 -Nz 100.00 -Ne -1.000000 -Nl RTR -Nw --- -Ma 0 -Md 0 -Ms 0 -Mt 0 -Is 3.0 -Id 2.0 -It cbr -Il 532 -If 1 -Ii 5 -Iv 30 -Pn cbr -Pi 2 -Pf 0 -Po 0 
s -t 1.020395000 -Hs 3 -Hd -2 -Ni 3 -Nx 0.00 -Ny 800.00 -Nz 100.00 -Ne -1.000000 -Nl MAC -Nw --- -Ma 14ee -Md 2 -Ms 3 -Mt 0 
s -t 1.020415000 -Hs 0 -Hd -2 -Ni 0 -Nx 0.00 -Ny 100.00 -Nz 100.00 -Ne -1.000000 -Nl MAC -Nw --- -Ma 14ee -Md 1 -Ms 0 -Mt 0 
r -t 1.020748000 -Hs 2 -Hd -2 -Ni 2 -Nx 300.00 -Ny 800.00 -Nz 100.00 -Ne -1.000000 -Nl MAC -Nw --- -Ma 14ee -Md 2 -Ms 3 -Mt 0 
s -t 1.020758000 -Hs 2 -Hd -2 -Ni 2 -Nx 300.00 -Ny 800.00 -Nz 100.00 -Ne -1.000000 -Nl MAC -Nw --- -Ma 13b4 -Md 3 -Ms 0 -Mt 0 
r -t 1.020768000 -Hs 1 -Hd -2 -Ni 1 -Nx 300.00 -Ny 100.00 -Nz 100.00 -Ne -1.000000 -Nl MAC -Nw --- -Ma 14ee -Md 1 -Ms 0 -Mt 0 
s -t 1.020778000 -Hs 1 -Hd -2 -Ni 1 -Nx 300.00 -Ny 100.00 -Nz 100.00 -Ne -1.000000 -Nl MAC -Nw --- -Ma 13b4 -Md 0 -Ms 0 -Mt 0 
r -t 1.021063000 -Hs 3 -Hd -2 -Ni 3 -Nx 0.00 -Ny 800.00 -Nz 100.00 -Ne -1.000000 -Nl MAC -Nw --- -Ma 13b4 -Md 3 -Ms 0 -Mt 0 
s -t 1.021073000 -Hs 3 -Hd 2 -Ni 3 -Nx 0.00 -Ny 800.00 -Nz 100.00 -Ne -1.000000 -Nl MAC -Nw --- -Ma 13a -Md 2 -Ms 3 -Mt 800 -Is 3.0 -Id 2.0 -It cbr -Il 590 -If 1 -Ii 5 -Iv 30 -Pn cbr -Pi 2 -Pf 0 -Po 0 
r -t 1.021083000 -Hs 0 -Hd -2 -Ni 0 -Nx 0.00 -Ny 100.00 -Nz 100.00 -Ne -1.000000 -Nl MAC -Nw --- -Ma 13b4 -Md 0 -Ms 0 -Mt 0 
s -t 1.021093000 -Hs 0 -Hd 1 -Ni 0 -Nx 0.00 -Ny 100.00 -Nz 100.00 -Ne -1.000000 -Nl MAC -Nw --- -Ma 13a -Md 1 -Ms 0 -Mt 800 -Is 0.0 -Id 1.0 -It cbr -Il 590 -If 0 -Ii 4 -Iv 30 -Pn cbr -Pi 2 -Pf 0 -Po 0 
r -t 1.025794000 -Hs 2 -Hd 2 -Ni 2 -Nx 300.00 -Ny 800.00 -Nz 100.00 -Ne -1.000000 -Nl MAC -Nw --- -Ma 13a -Md 2 -Ms 3 -Mt 800 -Is 3.0 -Id 2.0 -It cbr -Il 532 -If 1 -Ii 5 -Iv 30 -Pn cbr -Pi 2 -Pf 1 -Po 0 
s -t 1.025804000 -Hs 2 -Hd -2 -Ni 2 -Nx 300.00 -Ny 800.00 -Nz 100.00 -Ne -1.000000 -Nl MAC -Nw --- -Ma 0 -Md 3 -Ms 0 -Mt 0 
r -t 1.025814000 -Hs 1 -Hd 1 -Ni 1 -Nx 300.00 -Ny 100.00 -Nz 100.00 -Ne -1.000000 -Nl MAC -Nw --- -Ma 13a -Md 1 -Ms 0 -Mt 800 -Is 0.0 -Id 1.0 -It cbr -Il 532 -If 0 -Ii 4 -Iv 30 -Pn cbr -Pi 2 -Pf 1 -Po 0 
r -t 1.025819000 -Hs 2 -Hd 2 -Ni 2 -Nx 300.00 -Ny 800.00 -Nz 100.00 -Ne -1.000000 -Nl AGT -Nw --- -Ma 13a -Md 2 -Ms 3 -Mt 800 -Is 3.0 -Id 2.0 -It cbr -Il 532 -If 1 -Ii 5 -Iv 30 -Pn cbr -Pi 2 -Pf 1 -Po 0 
s -t 1.025824000 -Hs 1 -Hd -2 -Ni 1 -Nx 300.00 -Ny 100.00 -Nz 100.00 -Ne -1.000000 -Nl MAC -Nw --- -Ma 0 -Md 0 -Ms 0 -Mt 0 
r -t 1.025839000 -Hs 1 -Hd 1 -Ni 1 -Nx 300.00 -Ny 100.00 -Nz 100.00 -Ne -1.000000 -Nl AGT -Nw --- -Ma 13a -Md 1 -Ms 0 -Mt 800 -Is 0.0 -Id 1.0 -It cbr -Il 532 -If 0 -Ii 4 -Iv 30 -Pn cbr -Pi 2 -Pf 1 -Po 0 
r -t 1.026109000 -Hs 3 -Hd -2 -Ni 3 -Nx 0.00 -Ny 800.00 -Nz 100.00 -Ne -1.000000 -Nl MAC -Nw --- -Ma 0 -Md 3 -Ms 0 -Mt 0 
r -t 1.026129000 -Hs 0 -Hd -2 -Ni 0 -Nx 0.00 -Ny 100.00 -Nz 100.00 -Ne -1.000000 -Nl MAC -Nw --- -Ma 0 -Md 0 -Ms 0 -Mt 0 
s -t 1.030000000 -Hs 0 -Hd -2 -Ni 0 -Nx 0.00 -Ny 100.00 -Nz 100.00 -Ne -1.000000 -Nl AGT -Nw --- -Ma 0 -Md 0 -Ms 0 -Mt 0 -Is 0.0 -Id 1.0 -It cbr -Il 512 -If 0 -Ii 6 -Iv 32 -Pn cbr -Pi 3 -Pf 0 -Po 0 
r -t 1.030000000 -Hs 0 -Hd -2 -Ni 0 -Nx 0.00 -Ny 100.00 -Nz 100.00 -Ne -1.000000 -Nl RTR -Nw --- -Ma 0 -Md 0 -Ms 0 -Mt 0 -Is 0.0 -Id 1.0 -It cbr -Il 512 -If 0 -Ii 6 -Iv 32 -Pn cbr -Pi 3 -Pf 0 -Po 0 
s -t 1.030000000 -Hs 3 -Hd -2 -Ni 3 -Nx 0.00 -Ny 800.00 -Nz 100.00 -Ne -1.000000 -Nl AGT -Nw --- -Ma 0 -Md 0 -Ms 0 -Mt 0 -Is 3.0 -Id 2.0 -It cbr -Il 512 -If 1 -Ii 7 -Iv 32 -Pn cbr -Pi 3 -Pf 0 -Po 0 
r -t 1.030000000 -Hs 3 -Hd -2 -Ni 3 -Nx 0.00 -Ny 800.00 -Nz 100.00 -Ne -1.000000 -Nl RTR -Nw --- -Ma 0 -Md 0 -Ms 0 -Mt 0 -Is 3.0 -Id 2.0 -It cbr -Il 512 -If 1 -Ii 7 -Iv 32 -Pn cbr -Pi 3 -Pf 0 -Po 0 
s -t 1.030000000 -Hs 0 -Hd 1 -Ni 0 -Nx 0.00 -Ny 100.00 -Nz 100.00 -Ne -1.000000 -Nl RTR -Nw --- -Ma 0 -Md 0 -Ms 0 -Mt 0 -Is 0.0 -Id 1.0 -It cbr -Il 532 -If 0 -Ii 6 -Iv 30 -Pn cbr -Pi 3 -Pf 0 -Po 0 
s -t 1.030000000 -Hs 3 -Hd 2 -Ni 3 -Nx 0.00 -Ny 800.00 -Nz 100.00 -Ne -1.000000 -Nl RTR -Nw --- -Ma 0 -Md 0 -Ms 0 -Mt 0 -Is 3.0 -Id 2.0 -It cbr -Il 532 -If 1 -Ii 7 -Iv 30 -Pn cbr -Pi 3 -Pf 0 -Po 0 
s -t 1.030095000 -Hs 0 -Hd -2 -Ni 0 -Nx 0.00 -Ny 100.00 -Nz 100.00 -Ne -1.000000 -Nl MAC -Nw --- -Ma 14ee -Md 1 -Ms 0 -Mt 0 
s -t 1.030315000 -Hs 3 -Hd -2 -Ni 3 -Nx 0.00 -Ny 800.00 -Nz 100.00 -Ne -1.000000 -Nl MAC -Nw --- -Ma 14ee -Md 2 -Ms 3 -Mt 0 
r -t 1.030448000 -Hs 1 -Hd -2 -Ni 1 -Nx 300.00 -Ny 100.00 -Nz 100.00 -Ne -1.000000 -Nl MAC -Nw --- -Ma 14ee -Md 1 -Ms 0 -Mt 0 
s -t 1.030458000 -Hs 1 -Hd -2 -Ni 1 -Nx 300.00 -Ny 100.00 -Nz 100.00 -Ne -1.000000 -Nl MAC -Nw --- -Ma 13b4 -Md 0 -Ms 0 -Mt 0 
r -t 1.030668000 -Hs 2 -Hd -2 -Ni 2 -Nx 300.00 -Ny 800.00 -Nz 100.00 -Ne -1.000000 -Nl MAC -Nw --- -Ma 14ee -Md 2 -Ms 3 -Mt 0 
s -t 1.030678000 -Hs 2 -Hd -2 -Ni 2 -Nx 300.00 -Ny 800.00 -Nz 100.00 -Ne -1.000000 -Nl MAC -Nw --- -Ma 13b4 -Md 3 -Ms 0 -Mt 0 
r -t 1.030763000 -Hs 0 -Hd -2 -Ni 0 -Nx 0.00 -Ny 100.00 -Nz 100.00 -Ne -1.000000 -Nl MAC -Nw --- -Ma 13b4 -Md 0 -Ms 0 -Mt 0 
s -t 1.030773000 -Hs 0 -Hd 1 -Ni 0 -Nx 0.00 -Ny 100.00 -Nz 100.00 -Ne -1.000000 -Nl MAC -Nw --- -Ma 13a -Md 1 -Ms 0 -Mt 800 -Is 0.0 -Id 1.0 -It cbr -Il 590 -If 0 -Ii 6 -Iv 30 -Pn cbr -Pi 3 -Pf 0 -Po 0 
r -t 1.030983000 -Hs 3 -Hd -2 -Ni 3 -Nx 0.00 -Ny 800.00 -Nz 100.00 -Ne -1.000000 -Nl MAC -Nw --- -Ma 13b4 -Md 3 -Ms 0 -Mt 0 
s -t 1.030993000 -Hs 3 -Hd 2 -Ni 3 -Nx 0.00 -Ny 800.00 -Nz 100.00 -Ne -1.000000 -Nl MAC -Nw --- -Ma 13a -Md 2 -Ms 3 -Mt 800 -Is 3.0 -Id 2.0 -It cbr -Il 590 -If 1 -Ii 7 -Iv 30 -Pn cbr -Pi 3 -Pf 0 -Po 0 
r -t 1.035494000 -Hs 1 -Hd 1 -Ni 1 -Nx 300.00 -Ny 100.00 -Nz 100.00 -Ne -1.000000 -Nl MAC -Nw --- -Ma 13a -Md 1 -Ms 0 -Mt 800 -Is 0.0 -Id 1.0 -It cbr -Il 532 -If 0 -Ii 6 -Iv 30 -Pn cbr -Pi 3 -Pf 1 -Po 0 
s -t 1.035504000 -Hs 1 -Hd -2 -Ni 1 -Nx 300.00 -Ny 100.00 -Nz 100.00 -Ne -1.000000 -Nl MAC -Nw --- -Ma 0 -Md 0 -Ms 0 -Mt 0 
r -t 1.035519000 -Hs 1 -Hd 1 -Ni 1 -Nx 300.00 -Ny 100.00 -Nz 100.00 -Ne -1.000000 -Nl AGT -Nw --- -Ma 13a -Md 1 -Ms 0 -Mt 800 -Is 0.0 -Id 1.0 -It cbr -Il 532 -If 0 -Ii 6 -Iv 30 -Pn cbr -Pi 3 -Pf 1 -Po 0 
r -t 1.035714000 -Hs 2 -Hd 2 -Ni 2 -Nx 300.00 -Ny 800.00 -Nz 100.00 -Ne -1.000000 -Nl MAC -Nw --- -Ma 13a -Md 2 -Ms 3 -Mt 800 -Is 3.0 -Id 2.0 -It cbr -Il 532 -If 1 -Ii 7 -Iv 30 -Pn cbr -Pi 3 -Pf 1 -Po 0 
s -t 1.035724000 -Hs 2 -Hd -2 -Ni 2 -Nx 300.00 -Ny 800.00 -Nz 100.00 -Ne -1.000000 -Nl MAC -Nw --- -Ma 0 -Md 3 -Ms 0 -Mt 0 
r -t 1.035739000 -Hs 2 -Hd 2 -Ni 2 -Nx 300.00 -Ny 800.00 -Nz 100.00 -Ne -1.000000 -Nl AGT -Nw --- -Ma 13a -Md 2 -Ms 3 -Mt 800 -Is 3.0 -Id 2.0 -It cbr -Il 532 -If 1 -Ii 7 -Iv 30 -Pn cbr -Pi 3 -Pf 1 -Po 0 
r -t 1.035809000 -Hs 0 -Hd -2 -Ni 0 -Nx 0.00 -Ny 100.00 -Nz 100.00 -Ne -1.000000 -Nl MAC -Nw --- -Ma 0 -Md 0 -Ms 0 -Mt 0 
r -t 1.036029000 -Hs 3 -Hd -2 -Ni 3 -Nx 0.00 -Ny 800.00 -Nz 100.00 -Ne -1.000000 -Nl MAC -Nw --- -Ma 0 -Md 3 -Ms 0 -Mt 0 
s -t 1.040000000 -Hs 0 -Hd -2 -Ni 0 -Nx 0.00 -Ny 100.00 -Nz 100.00 -Ne -1.000000 -Nl AGT -Nw --- -Ma 0 -Md 0 -Ms 0 -Mt 0 -Is 0.0 -Id 1.0 -It cbr -Il 512 -If 0 -Ii 8 -Iv 32 -Pn cbr -Pi 4 -Pf 0 -Po 0 
r -t 1.040000000 -Hs 0 -Hd -2 -Ni 0 -Nx 0.00 -Ny 100.00 -Nz 100.00 -Ne -1.000000 -Nl RTR -Nw --- -Ma 0 -Md 0 -Ms 0 -Mt 0 -Is 0.0 -Id 1.0 -It cbr -Il 512 -If 0 -Ii 8 -Iv 32 -Pn cbr -Pi 4 -Pf 0 -Po 0 
s -t 1.040000000 -Hs 3 -Hd -2 -Ni 3 -Nx 0.00 -Ny 800.00 -Nz 100.00 -Ne -1.000000 -Nl AGT -Nw --- -Ma 0 -Md 0 -Ms 0 -Mt 0 -Is 3.0 -Id 2.0 -It cbr -Il 512 -If 1 -Ii 9 -Iv 32 -Pn cbr -Pi 4 -Pf 0 -Po 0 
r -t 1.040000000 -Hs 3 -Hd -2 -Ni 3 -Nx 0.00 -Ny 800.00 -Nz 100.00 -Ne -1.000000 -Nl RTR -Nw --- -Ma 0 -Md 0 -Ms 0 -Mt 0 -Is 3.0 -Id 2.0 -It cbr -Il 512 -If 1 -Ii 9 -Iv 32 -Pn cbr -Pi 4 -Pf 0 -Po 0 
s -t 1.040000000 -Hs 0 -Hd 1 -Ni 0 -Nx 0.00 -Ny 100.00 -Nz 100.00 -Ne -1.000000 -Nl RTR -Nw --- -Ma 0 -Md 0 -Ms 0 -Mt 0 -Is 0.0 -Id 1.0 -It cbr -Il 532 -If 0 -Ii 8 -Iv 30 -Pn cbr -Pi 4 -Pf 0 -Po 0 
s -t 1.040000000 -Hs 3 -Hd 2 -Ni 3 -Nx 0.00 -Ny 800.00 -Nz 100.00 -Ne -1.000000 -Nl RTR -Nw --- -Ma 0 -Md 0 -Ms 0 -Mt 0 -Is 3.0 -Id 2.0 -It cbr -Il 532 -If 1 -Ii 9 -Iv 30 -Pn cbr -Pi 4 -Pf 0 -Po 0 
s -t 1.040475000 -Hs 3 -Hd -2 -Ni 3 -Nx 0.00 -Ny 800.00 -Nz 100.00 -Ne -1.000000 -Nl MAC -Nw --- -Ma 14ee -Md 2 -Ms 3 -Mt 0 
s -t 1.040655000 -Hs 0 -Hd -2 -Ni 0 -Nx 0.00 -Ny 100.00 -Nz 100.00 -Ne -1.000000 -Nl MAC -Nw --- -Ma 14ee -Md 1 -Ms 0 -Mt 0 
r -t 1.040828000 -Hs 2 -Hd -2 -Ni 2 -Nx 300.00 -Ny 800.00 -Nz 100.00 -Ne -1.000000 -Nl MAC -Nw --- -Ma 14ee -Md 2 -Ms 3 -Mt 0 
s -t 1.040838000 -Hs 2 -Hd -2 -Ni 2 -Nx 300.00 -Ny 800.00 -Nz 100.00 -Ne -1.000000 -Nl MAC -Nw --- -Ma 13b4 -Md 3 -Ms 0 -Mt 0 
r -t 1.041008000 -Hs 1 -Hd -2 -Ni 1 -Nx 300.00 -Ny 100.00 -Nz 100.00 -Ne -1.000000 -Nl MAC -Nw --- -Ma 14ee -Md 1 -Ms 0 -Mt 0 
s -t 1.041018000 -Hs 1 -Hd -2 -Ni 1 -Nx 300.00 -Ny 100.00 -Nz 100.00 -Ne -1.000000 -Nl MAC -Nw --- -Ma 13b4 -Md 0 -Ms 0 -Mt 0 
r -t 1.041143000 -Hs 3 -Hd -2 -Ni 3 -Nx 0.00 -Ny 800.00 -Nz 100.00 -Ne -1.000000 -Nl MAC -Nw --- -Ma 13b4 -Md 3 -Ms 0 -Mt 0 
s -t 1.041153000 -Hs 3 -Hd 2 -Ni 3 -Nx 0.00 -Ny 800.00 -Nz 100.00 -Ne -1.000000 -Nl MAC -Nw --- -Ma 13a -Md 2 -Ms 3 -Mt 800 -Is 3.0 -Id 2.0 -It cbr -Il 590 -If 1 -Ii 9 -Iv 30 -Pn cbr -Pi 4 -Pf 0 -Po 0 
r -t 1.041323000 -Hs 0 -Hd -2 -Ni 0 -Nx 0.00 -Ny 100.00 -Nz 100.00 -Ne -1.000000 -Nl MAC -Nw --- -Ma 13b4 -Md 0 -Ms 0 -Mt 0 
s -t 1.041333000 -Hs 0 -Hd 1 -Ni 0 -Nx 0.00 -Ny 100.00 -Nz 100.00 -Ne -1.000000 -Nl MAC -Nw --- -Ma 13a -Md 1 -Ms 0 -Mt 800 -Is 0.0 -Id 1.0 -It cbr -Il 590 -If 0 -Ii 8 -Iv 30 -Pn cbr -Pi 4 -Pf 0 -Po 0 
r -t 1.045874000 -Hs 2 -Hd 2 -Ni 2 -Nx 300.00 -Ny 800.00 -Nz 100.00 -Ne -1.000000 -Nl MAC -Nw --- -Ma 13a -Md 2 -Ms 3 -Mt 800 -Is 3.0 -Id 2.0 -It cbr -Il 532 -If 1 -Ii 9 -Iv 30 -Pn cbr -Pi 4 -Pf 1 -Po 0 
s -t 1.045884000 -Hs 2 -Hd -2 -Ni 2 -Nx 300.00 -Ny 800.00 -Nz 100.00 -Ne -1.000000 -Nl MAC -Nw --- -Ma 0 -Md 3 -Ms 0 -Mt 0 
r -t 1.045899000 -Hs 2 -Hd 2 -Ni 2 -Nx 300.00 -Ny 800.00 -Nz 100.00 -Ne -1.000000 -Nl AGT -Nw --- -Ma 13a -Md 2 -Ms 3 -Mt 800 -Is 3.0 -Id 2.0 -It cbr -Il 532 -If 1 -Ii 9 -Iv 30 -Pn cbr -Pi 4 -Pf 1 -Po 0 
r -t 1.046054000 -Hs 1 -Hd 1 -Ni 1 -Nx 300.00 -Ny 100.00 -Nz 100.00 -Ne -1.000000 -Nl MAC -Nw --- -Ma 13a -Md 1 -Ms 0 -Mt 800 -Is 0.0 -Id 1.0 -It cbr -Il 532 -If 0 -Ii 8 -Iv 30 -Pn cbr -Pi 4 -Pf 1 -Po 0 
s -t 1.046064000 -Hs 1 -Hd -2 -Ni 1 -Nx 300.00 -Ny 100.00 -Nz 100.00 -Ne -1.000000 -Nl MAC -Nw --- -Ma 0 -Md 0 -Ms 0 -Mt 0 
r -t 1.046079000 -Hs 1 -Hd 1 -Ni 1 -Nx 300.00 -Ny 100.00 -Nz 100.00 -Ne -1.000000 -Nl AGT -Nw --- -Ma 13a -Md 1 -Ms 0 -Mt 800 -Is 0.0 -Id 1.0 -It cbr -Il 532 -If 0 -Ii 8 -Iv 30 -Pn cbr -Pi 4 -Pf 1 -Po 0 
r -t 1.046189000 -Hs 3 -Hd -2 -Ni 3 -Nx 0.00 -Ny 800.00 -Nz 100.00 -Ne -1.000000 -Nl MAC -Nw --- -Ma 0 -Md 3 -Ms 0 -Mt 0 
r -t 1.046369000 -Hs 0 -Hd -2 -Ni 0 -Nx 0.00 -Ny 100.00 -Nz 100.00 -Ne -1.000000 -Nl MAC -Nw --- -Ma 0 -Md 0 -Ms 0 -Mt 0 
s -t 1.050000000 -Hs 0 -Hd -2 -Ni 0 -Nx 0.00 -Ny 100.00 -Nz 100.00 -Ne -1.000000 -Nl AGT -Nw --- -Ma 0 -Md 0 -Ms 0 -Mt 0 -Is 0.0 -Id 1.0 -It cbr -Il 512 -If 0 -Ii 10 -Iv 32 -Pn cbr -Pi 5 -Pf 0 -Po 0 
r -t 1.050000000 -Hs 0 -Hd -2 -Ni 0 -Nx 0.00 -Ny 100.00 -Nz 100.00 -Ne -1.000000 -Nl RTR -Nw --- -Ma 0 -Md 0 -Ms 0 -Mt 0 -Is 0.0 -Id 1.0 -It cbr -Il 512 -If 0 -Ii 10 -Iv 32 -Pn cbr -Pi 5 -Pf 0 -Po 0 
s -t 1.050000000 -Hs 3 -Hd -2 -Ni 3 -Nx 0.00 -Ny 800.00 -Nz 100.00 -Ne -1.000000 -Nl AGT -Nw --- -Ma 0 -Md 0 -Ms 0 -Mt 0 -Is 3.0 -Id 2.0 -It cbr -Il 512 -If 1 -Ii 11 -Iv 32 -Pn cbr -Pi 5 -Pf 0 -Po 0 
r -t 1.050000000 -Hs 3 -Hd -2 -Ni 3 -Nx 0.00 -Ny 800.00 -Nz 100.00 -Ne -1.000000 -Nl RTR -Nw --- -Ma 0 -Md 0 -Ms 0 -Mt 0 -Is 3.0 -Id 2.0 -It cbr -Il 512 -If 1 -Ii 11 -Iv 32 -Pn cbr -Pi 5 -Pf 0 -Po 0 
s -t 1.050000000 -Hs 0 -Hd 1 -Ni 0 -Nx 0.00 -Ny 100.00 -Nz 100.00 -Ne -1.000000 -Nl RTR -Nw --- -Ma 0 -Md 0 -Ms 0 -Mt 0 -Is 0.0 -Id 1.0 -It cbr -Il 532 -If 0 -Ii 10 -Iv 30 -Pn cbr -Pi 5 -Pf 0 -Po 0 
s -t 1.050000000 -Hs 3 -Hd 2 -Ni 3 -Nx 0.00 -Ny 800.00 -Nz 100.00 -Ne -1.000000 -Nl RTR -Nw --- -Ma 0 -Md 0 -Ms 0 -Mt 0 -Is 3.0 -Id 2.0 -It cbr -Il 532 -If 1 -Ii 11 -Iv 30 -Pn cbr -Pi 5 -Pf 0 -Po 0 
s -t 1.050115000 -Hs 0 -Hd -2 -Ni 0 -Nx 0.00 -Ny 100.00 -Nz 100.00 -Ne -1.000000 -Nl MAC -Nw --- -Ma 14ee -Md 1 -Ms 0 -Mt 0 
s -t 1.050375000 -Hs 3 -Hd -2 -Ni 3 -Nx 0.00 -Ny 800.00 -Nz 100.00 -Ne -1.000000 -Nl MAC -Nw --- -Ma 14ee -Md 2 -Ms 3 -Mt 0 
r -t 1.050468000 -Hs 1 -Hd -2 -Ni 1 -Nx 300.00 -Ny 100.00 -Nz 100.00 -Ne -1.000000 -Nl MAC -Nw --- -Ma 14ee -Md 1 -Ms 0 -Mt 0 
s -t 1.050478000 -Hs 1 -Hd -2 -Ni 1 -Nx 300.00 -Ny 100.00 -Nz 100.00 -Ne -1.000000 -Nl MAC -Nw --- -Ma 13b4 -Md 0 -Ms 0 -Mt 0 
r -t 1.050728000 -Hs 2 -Hd -2 -Ni 2 -Nx 300.00 -Ny 800.00 -Nz 100.00 -Ne -1.000000 -Nl MAC -Nw --- -Ma 14ee -Md 2 -Ms 3 -Mt 0 
s -t 1.050738000 -Hs 2 -Hd -2 -Ni 2 -Nx 300.00 -Ny 800.00 -Nz 100.00 -Ne -1.000000 -Nl MAC -Nw --- -Ma 13b4 -Md 3 -Ms 0 -Mt 0 
r -t 1.050783000 -Hs 0 -Hd -2 -Ni 0 -Nx 0.00 -Ny 100.00 -Nz 100.00 -Ne -1.000000 -Nl MAC -Nw --- -Ma 13b4 -Md 0 -Ms 0 -Mt 0 