s -t 1.000000000 -Hs 0 -Hd -2 -Ni 0 -Nx 0.00 -Ny 200.00 -Nz 100.00 -Ne -1.000000 -Nl AGT -Nw --- -Ma 0 -Md 0 -Ms 0 -Mt 0 -Is 0.0 -Id 2.0 -It cbr -Il 512 -If 0 -Ii 0 -Iv 32 -Pn cbr -Pi 0 -Pf 0 -Po 0 
r -t 1.000000000 -Hs 0 -Hd -2 -Ni 0 -Nx 0.00 -Ny 200.00 -Nz 100.00 -Ne -1.000000 -Nl RTR -Nw --- -Ma 0 -Md 0 -Ms 0 -Mt 0 -Is 0.0 -Id 2.0 -It cbr -Il 512 -If 0 -Ii 0 -Iv 32 -Pn cbr -Pi 0 -Pf 0 -Po 0 
s -t 1.000000000 -Hs 0 -Hd -2 -Ni 0 -Nx 0.00 -Ny 200.00 -Nz 100.00 -Ne -1.000000 -Nl RTR -Nw --- -Ma 0 -Md 0 -Ms 0 -Mt 0 -Is 0.255 -Id -1.255 -It AODV -Il 48 -If 0 -Ii 0 -Iv 30 -P aodv -Pt 0x2 -Ph 1 -Pb 1 -Pd 2 -Pds 0 -Ps 0 -Pss 4 -Pc REQUEST 
s -t 1.000535000 -Hs 0 -Hd -2 -Ni 0 -Nx 0.00 -Ny 200.00 -Nz 100.00 -Ne -1.000000 -Nl MAC -Nw --- -Ma 0 -Md ffffffff -Ms 0 -Mt 800 -Is 0.255 -Id -1.255 -It AODV -Il 106 -If 0 -Ii 0 -Iv 30 -P aodv -Pt 0x2 -Ph 1 -Pb 1 -Pd 2 -Pds 0 -Ps 0 -Pss 4 -Pc REQUEST 
r -t 1.001384167 -Hs 1 -Hd -2 -Ni 1 -Nx 350.00 -Ny 200.00 -Nz 100.00 -Ne -1.000000 -Nl MAC -Nw --- -Ma 0 -Md ffffffff -Ms 0 -Mt 800 -Is 0.255 -Id -1.255 -It AODV -Il 48 -If 0 -Ii 0 -Iv 30 -P aodv -Pt 0x2 -Ph 1 -Pb 1 -Pd 2 -Pds 0 -Ps 0 -Pss 4 -Pc REQUEST 
r -t 1.001384213 -Hs 3 -Hd -2 -Ni 3 -Nx 350.00 -Ny 100.00 -Nz 100.00 -Ne -1.000000 -Nl MAC -Nw --- -Ma 0 -Md ffffffff -Ms 0 -Mt 800 -Is 0.255 -Id -1.255 -It AODV -Il 48 -If 0 -Ii 0 -Iv 30 -P aodv -Pt 0x2 -Ph 1 -Pb 1 -Pd 2 -Pds 0 -Ps 0 -Pss 4 -Pc REQUEST 
r -t 1.001409167 -Hs 1 -Hd -2 -Ni 1 -Nx 350.00 -Ny 200.00 -Nz 100.00 -Ne -1.000000 -Nl RTR -Nw --- -Ma 0 -Md ffffffff -Ms 0 -Mt 800 -Is 0.255 -Id -1.255 -It AODV -Il 48 -If 0 -Ii 0 -Iv 30 -P aodv -Pt 0x2 -Ph 1 -Pb 1 -Pd 2 -Pds 0 -Ps 0 -Pss 4 -Pc REQUEST 
r -t 1.001409213 -Hs 3 -Hd -2 -Ni 3 -Nx 350.00 -Ny 100.00 -Nz 100.00 -Ne -1.000000 -Nl RTR -Nw --- -Ma 0 -Md ffffffff -Ms 0 -Mt 800 -Is 0.255 -Id -1.255 -It AODV -Il 48 -If 0 -Ii 0 -Iv 30 -P aodv -Pt 0x2 -Ph 1 -Pb 1 -Pd 2 -Pds 0 -Ps 0 -Pss 4 -Pc REQUEST 
s -t 1.001551213 -Hs 1 -Hd -2 -Ni 1 -Nx 350.00 -Ny 200.00 -Nz 100.00 -Ne -1.000000 -Nl RTR -Nw --- -Ma 0 -Md ffffffff -Ms 0 -Mt 800 -Is 1.255 -Id -1.255 -It AODV -Il 48 -If 0 -Ii 0 -Iv 29 -P aodv -Pt 0x2 -Ph 2 -Pb 1 -Pd 2 -Pds 0 -Ps 0 -Pss 4 -Pc REQUEST 
s -t 1.001946213 -Hs 1 -Hd -2 -Ni 1 -Nx 350.00 -Ny 200.00 -Nz 100.00 -Ne -1.000000 -Nl MAC -Nw --- -Ma 0 -Md ffffffff -Ms 1 -Mt 800 -Is 1.255 -Id -1.255 -It AODV -Il 106 -If 0 -Ii 0 -Iv 29 -P aodv -Pt 0x2 -Ph 2 -Pb 1 -Pd 2 -Pds 0 -Ps 0 -Pss 4 -Pc REQUEST 
s -t 1.002290440 -Hs 3 -Hd -2 -Ni 3 -Nx 350.00 -Ny 100.00 -Nz 100.00 -Ne -1.000000 -Nl RTR -Nw --- -Ma 0 -Md ffffffff -Ms 0 -Mt 800 -Is 3.255 -Id -1.255 -It AODV -Il 48 -If 0 -Ii 0 -Iv 29 -P aodv -Pt 0x2 -Ph 2 -Pb 1 -Pd 2 -Pds 0 -Ps 0 -Pss 4 -Pc REQUEST 
r -t 1.002794547 -Hs 3 -Hd -2 -Ni 3 -Nx 350.00 -Ny 100.00 -Nz 100.00 -Ne -1.000000 -Nl MAC -Nw --- -Ma 0 -Md ffffffff -Ms 1 -Mt 800 -Is 1.255 -Id -1.255 -It AODV -Il 48 -If 0 -Ii 0 -Iv 29 -P aodv -Pt 0x2 -Ph 2 -Pb 1 -Pd 2 -Pds 0 -Ps 0 -Pss 4 -Pc REQUEST 
r -t 1.002795380 -Hs 0 -Hd -2 -Ni 0 -Nx 0.00 -Ny 200.00 -Nz 100.00 -Ne -1.000000 -Nl MAC -Nw --- -Ma 0 -Md ffffffff -Ms 1 -Mt 800 -Is 1.255 -Id -1.255 -It AODV -Il 48 -If 0 -Ii 0 -Iv 29 -P aodv -Pt 0x2 -Ph 2 -Pb 1 -Pd 2 -Pds 0 -Ps 0 -Pss 4 -Pc REQUEST 
r -t 1.002795380 -Hs 2 -Hd -2 -Ni 2 -Nx 700.00 -Ny 200.00 -Nz 100.00 -Ne -1.000000 -Nl MAC -Nw --- -Ma 0 -Md ffffffff -Ms 1 -Mt 800 -Is 1.255 -Id -1.255 -It AODV -Il 48 -If 0 -Ii 0 -Iv 29 -P aodv -Pt 0x2 -Ph 2 -Pb 1 -Pd 2 -Pds 0 -Ps 0 -Pss 4 -Pc REQUEST 
r -t 1.002819547 -Hs 3 -Hd -2 -Ni 3 -Nx 350.00 -Ny 100.00 -Nz 100.00 -Ne -1.000000 -Nl RTR -Nw --- -Ma 0 -Md ffffffff -Ms 1 -Mt 800 -Is 1.255 -Id -1.255 -It AODV -Il 48 -If 0 -Ii 0 -Iv 29 -P aodv -Pt 0x2 -Ph 2 -Pb 1 -Pd 2 -Pds 0 -Ps 0 -Pss 4 -Pc REQUEST 
r -t 1.002820380 -Hs 0 -Hd -2 -Ni 0 -Nx 0.00 -Ny 200.00 -Nz 100.00 -Ne -1.000000 -Nl RTR -Nw --- -Ma 0 -Md ffffffff -Ms 1 -Mt 800 -Is 1.255 -Id -1.255 -It AODV -Il 48 -If 0 -Ii 0 -Iv 29 -P aodv -Pt 0x2 -Ph 2 -Pb 1 -Pd 2 -Pds 0 -Ps 0 -Pss 4 -Pc REQUEST 
r -t 1.002820380 -Hs 2 -Hd -2 -Ni 2 -Nx 700.00 -Ny 200.00 -Nz 100.00 -Ne -1.000000 -Nl RTR -Nw --- -Ma 0 -Md ffffffff -Ms 1 -Mt 800 -Is 1.255 -Id -1.255 -It AODV -Il 48 -If 0 -Ii 0 -Iv 29 -P aodv -Pt 0x2 -Ph 2 -Pb 1 -Pd 2 -Pds 0 -Ps 0 -Pss 4 -Pc REQUEST 
s -t 1.002820380 -Hs 2 -Hd 1 -Ni 2 -Nx 700.00 -Ny 200.00 -Nz 100.00 -Ne -1.000000 -Nl RTR -Nw --- -Ma 0 -Md 0 -Ms 0 -Mt 0 -Is 2.255 -Id 0.255 -It AODV -Il 44 -If 0 -Ii 0 -Iv 30 -P aodv -Pt 0x4 -Ph 1 -Pd 2 -Pds 4 -Pl 10.000000 -Pc REPLY 
s -t 1.002844547 -Hs 3 -Hd -2 -Ni 3 -Nx 350.00 -Ny 100.00 -Nz 100.00 -Ne -1.000000 -Nl MAC -Nw --- -Ma 0 -Md ffffffff -Ms 3 -Mt 800 -Is 3.255 -Id -1.255 -It AODV -Il 106 -If 0 -Ii 0 -Iv 29 -P aodv -Pt 0x2 -Ph 2 -Pb 1 -Pd 2 -Pds 0 -Ps 0 -Pss 4 -Pc REQUEST 
r -t 1.003692880 -Hs 1 -Hd -2 -Ni 1 -Nx 350.00 -Ny 200.00 -Nz 100.00 -Ne -1.000000 -Nl MAC -Nw --- -Ma 0 -Md ffffffff -Ms 3 -Mt 800 -Is 3.255 -Id -1.255 -It AODV -Il 48 -If 0 -Ii 0 -Iv 29 -P aodv -Pt 0x2 -Ph 2 -Pb 1 -Pd 2 -Pds 0 -Ps 0 -Pss 4 -Pc REQUEST 
r -t 1.003693760 -Hs 0 -Hd -2 -Ni 0 -Nx 0.00 -Ny 200.00 -Nz 100.00 -Ne -1.000000 -Nl MAC -Nw --- -Ma 0 -Md ffffffff -Ms 3 -Mt 800 -Is 3.255 -Id -1.255 -It AODV -Il 48 -If 0 -Ii 0 -Iv 29 -P aodv -Pt 0x2 -Ph 2 -Pb 1 -Pd 2 -Pds 0 -Ps 0 -Pss 4 -Pc REQUEST 
r -t 1.003693760 -Hs 2 -Hd -2 -Ni 2 -Nx 700.00 -Ny 200.00 -Nz 100.00 -Ne -1.000000 -Nl MAC -Nw --- -Ma 0 -Md ffffffff -Ms 3 -Mt 800 -Is 3.255 -Id -1.255 -It AODV -Il 48 -If 0 -Ii 0 -Iv 29 -P aodv -Pt 0x2 -Ph 2 -Pb 1 -Pd 2 -Pds 0 -Ps 0 -Pss 4 -Pc REQUEST 
r -t 1.003717880 -Hs 1 -Hd -2 -Ni 1 -Nx 350.00 -Ny 200.00 -Nz 100.00 -Ne -1.000000 -Nl RTR -Nw --- -Ma 0 -Md ffffffff -Ms 3 -Mt 800 -Is 3.255 -Id -1.255 -It AODV -Il 48 -If 0 -Ii 0 -Iv 29 -P aodv -Pt 0x2 -Ph 2 -Pb 1 -Pd 2 -Pds 0 -Ps 0 -Pss 4 -Pc REQUEST 
r -t 1.003718760 -Hs 0 -Hd -2 -Ni 0 -Nx 0.00 -Ny 200.00 -Nz 100.00 -Ne -1.000000 -Nl RTR -Nw --- -Ma 0 -Md ffffffff -Ms 3 -Mt 800 -Is 3.255 -Id -1.255 -It AODV -Il 48 -If 0 -Ii 0 -Iv 29 -P aodv -Pt 0x2 -Ph 2 -Pb 1 -Pd 2 -Pds 0 -Ps 0 -Pss 4 -Pc REQUEST 
r -t 1.003718760 -Hs 2 -Hd -2 -Ni 2 -Nx 700.00 -Ny 200.00 -Nz 100.00 -Ne -1.000000 -Nl RTR -Nw --- -Ma 0 -Md ffffffff -Ms 3 -Mt 800 -Is 3.255 -Id -1.255 -It AODV -Il 48 -If 0 -Ii 0 -Iv 29 -P aodv -Pt 0x2 -Ph 2 -Pb 1 -Pd 2 -Pds 0 -Ps 0 -Pss 4 -Pc REQUEST 
s -t 1.003943760 -Hs 2 -Hd -2 -Ni 2 -Nx 700.00 -Ny 200.00 -Nz 100.00 -Ne -1.000000 -Nl MAC -Nw --- -Ma 0 -Md ffffffff -Ms 2 -Mt 806 -P arp -Po REQUEST -Pms 2 -Ps 2 -Pmd 0 -Pd 1 
r -t 1.004632927 -Hs 1 -Hd -2 -Ni 1 -Nx 350.00 -Ny 200.00 -Nz 100.00 -Ne -1.000000 -Nl MAC -Nw --- -Ma 0 -Md ffffffff -Ms 2 -Mt 806 -P arp -Po REQUEST -Pms 2 -Ps 2 -Pmd 0 -Pd 1 
r -t 1.004632973 -Hs 3 -Hd -2 -Ni 3 -Nx 350.00 -Ny 100.00 -Nz 100.00 -Ne -1.000000 -Nl MAC -Nw --- -Ma 0 -Md ffffffff -Ms 2 -Mt 806 -P arp -Po REQUEST -Pms 2 -Ps 2 -Pmd 0 -Pd 1 
s -t 1.004947927 -Hs 1 -Hd -2 -Ni 1 -Nx 350.00 -Ny 200.00 -Nz 100.00 -Ne -1.000000 -Nl MAC -Nw --- -Ma 52e -Md 2 -Ms 1 -Mt 0 
r -t 1.005301093 -Hs 2 -Hd -2 -Ni 2 -Nx 700.00 -Ny 200.00 -Nz 100.00 -Ne -1.000000 -Nl MAC -Nw --- -Ma 52e -Md 2 -Ms 1 -Mt 0 
s -t 1.005311093 -Hs 2 -Hd -2 -Ni 2 -Nx 700.00 -Ny 200.00 -Nz 100.00 -Ne -1.000000 -Nl MAC -Nw --- -Ma 3f4 -Md 1 -Ms 0 -Mt 0 
r -t 1.005616260 -Hs 1 -Hd -2 -Ni 1 -Nx 350.00 -Ny 200.00 -Nz 100.00 -Ne -1.000000 -Nl MAC -Nw --- -Ma 3f4 -Md 1 -Ms 0 -Mt 0 
s -t 1.005626260 -Hs 1 -Hd -2 -Ni 1 -Nx 350.00 -Ny 200.00 -Nz 100.00 -Ne -1.000000 -Nl MAC -Nw --- -Ma 13a -Md 2 -Ms 1 -Mt 806 -P arp -Po REPLY -Pms 1 -Ps 1 -Pmd 2 -Pd 2 
r -t 1.006315427 -Hs 2 -Hd -2 -Ni 2 -Nx 700.00 -Ny 200.00 -Nz 100.00 -Ne -1.000000 -Nl MAC -Nw --- -Ma 13a -Md 2 -Ms 1 -Mt 806 -P arp -Po REPLY -Pms 1 -Ps 1 -Pmd 2 -Pd 2 
s -t 1.006325427 -Hs 2 -Hd -2 -Ni 2 -Nx 700.00 -Ny 200.00 -Nz 100.00 -Ne -1.000000 -Nl MAC -Nw --- -Ma 0 -Md 1 -Ms 0 -Mt 0 
r -t 1.006630593 -Hs 1 -Hd -2 -Ni 1 -Nx 350.00 -Ny 200.00 -Nz 100.00 -Ne -1.000000 -Nl MAC -Nw --- -Ma 0 -Md 1 -Ms 0 -Mt 0 
s -t 1.006779427 -Hs 2 -Hd -2 -Ni 2 -Nx 700.00 -Ny 200.00 -Nz 100.00 -Ne -1.000000 -Nl MAC -Nw --- -Ma 5ae -Md 1 -Ms 2 -Mt 0 
r -t 1.007132593 -Hs 1 -Hd -2 -Ni 1 -Nx 350.00 -Ny 200.00 -Nz 100.00 -Ne -1.000000 -Nl MAC -Nw --- -Ma 5ae -Md 1 -Ms 2 -Mt 0 
s -t 1.007142593 -Hs 1 -Hd -2 -Ni 1 -Nx 350.00 -Ny 200.00 -Nz 100.00 -Ne -1.000000 -Nl MAC -Nw --- -Ma 474 -Md 2 -Ms 0 -Mt 0 
r -t 1.007447760 -Hs 2 -Hd -2 -Ni 2 -Nx 700.00 -Ny 200.00 -Nz 100.00 -Ne -1.000000 -Nl MAC -Nw --- -Ma 474 -Md 2 -Ms 0 -Mt 0 
s -t 1.007457760 -Hs 2 -Hd 1 -Ni 2 -Nx 700.00 -Ny 200.00 -Nz 100.00 -Ne -1.000000 -Nl MAC -Nw --- -Ma 13a -Md 1 -Ms 2 -Mt 800 -Is 2.255 -Id 0.255 -It AODV -Il 102 -If 0 -Ii 0 -Iv 30 -P aodv -Pt 0x4 -Ph 1 -Pd 2 -Pds 4 -Pl 10.000000 -Pc REPLY 
r -t 1.008274927 -Hs 1 -Hd 1 -Ni 1 -Nx 350.00 -Ny 200.00 -Nz 100.00 -Ne -1.000000 -Nl MAC -Nw --- -Ma 13a -Md 1 -Ms 2 -Mt 800 -Is 2.255 -Id 0.255 -It AODV -Il 44 -If 0 -Ii 0 -Iv 30 -P aodv -Pt 0x4 -Ph 1 -Pd 2 -Pds 4 -Pl 10.000000 -Pc REPLY 
s -t 1.008284927 -Hs 1 -Hd -2 -Ni 1 -Nx 350.00 -Ny 200.00 -Nz 100.00 -Ne -1.000000 -Nl MAC -Nw --- -Ma 0 -Md 2 -Ms 0 -Mt 0 
r -t 1.008299927 -Hs 1 -Hd 1 -Ni 1 -Nx 350.00 -Ny 200.00 -Nz 100.00 -Ne -1.000000 -Nl RTR -Nw --- -Ma 13a -Md 1 -Ms 2 -Mt 800 -Is 2.255 -Id 0.255 -It AODV -Il 44 -If 0 -Ii 0 -Iv 30 -P aodv -Pt 0x4 -Ph 1 -Pd 2 -Pds 4 -Pl 10.000000 -Pc REPLY 
f -t 1.008299927 -Hs 1 -Hd 0 -Ni 1 -Nx 350.00 -Ny 200.00 -Nz 100.00 -Ne -1.000000 -Nl RTR -Nw --- -Ma 13a -Md 1 -Ms 2 -Mt 800 -Is 2.255 -Id 0.255 -It AODV -Il 44 -If 0 -Ii 0 -Iv 29 -P aodv -Pt 0x4 -Ph 2 -Pd 2 -Pds 4 -Pl 10.000000 -Pc REPLY 
r -t 1.008590093 -Hs 2 -Hd -2 -Ni 2 -Nx 700.00 -Ny 200.00 -Nz 100.00 -Ne -1.000000 -Nl MAC -Nw --- -Ma 0 -Md 2 -Ms 0 -Mt 0 
s -t 1.008798927 -Hs 1 -Hd -2 -Ni 1 -Nx 350.00 -Ny 200.00 -Nz 100.00 -Ne -1.000000 -Nl MAC -Nw --- -Ma 0 -Md ffffffff -Ms 1 -Mt 806 -P arp -Po REQUEST -Pms 1 -Ps 1 -Pmd 0 -Pd 0 
r -t 1.009487260 -Hs 3 -Hd -2 -Ni 3 -Nx 350.00 -Ny 100.00 -Nz 100.00 -Ne -1.000000 -Nl MAC -Nw --- -Ma 0 -Md ffffffff -Ms 1 -Mt 806 -P arp -Po REQUEST -Pms 1 -Ps 1 -Pmd 0 -Pd 0 
r -t 1.009488093 -Hs 0 -Hd -2 -Ni 0 -Nx 0.00 -Ny 200.00 -Nz 100.00 -Ne -1.000000 -Nl MAC -Nw --- -Ma 0 -Md ffffffff -Ms 1 -Mt 806 -P arp -Po REQUEST -Pms 1 -Ps 1 -Pmd 0 -Pd 0 
r -t 1.009488093 -Hs 2 -Hd -2 -Ni 2 -Nx 700.00 -Ny 200.00 -Nz 100.00 -Ne -1.000000 -Nl MAC -Nw --- -Ma 0 -Md ffffffff -Ms 1 -Mt 806 -P arp -Po REQUEST -Pms 1 -Ps 1 -Pmd 0 -Pd 0 
s -t 1.009703093 -Hs 0 -Hd -2 -Ni 0 -Nx 0.00 -Ny 200.00 -Nz 100.00 -Ne -1.000000 -Nl MAC -Nw --- -Ma 52e -Md 1 -Ms 0 -Mt 0 
r -t 1.010056260 -Hs 1 -Hd -2 -Ni 1 -Nx 350.00 -Ny 200.00 -Nz 100.00 -Ne -1.000000 -Nl MAC -Nw --- -Ma 52e -Md 1 -Ms 0 -Mt 0 
s -t 1.010066260 -Hs 1 -Hd -2 -Ni 1 -Nx 350.00 -Ny 200.00 -Nz 100.00 -Ne -1.000000 -Nl MAC -Nw --- -Ma 3f4 -Md 0 -Ms 0 -Mt 0 
r -t 1.010371427 -Hs 0 -Hd -2 -Ni 0 -Nx 0.00 -Ny 200.00 -Nz 100.00 -Ne -1.000000 -Nl MAC -Nw --- -Ma 3f4 -Md 0 -Ms 0 -Mt 0 
s -t 1.010381427 -Hs 0 -Hd -2 -Ni 0 -Nx 0.00 -Ny 200.00 -Nz 100.00 -Ne -1.000000 -Nl MAC -Nw --- -Ma 13a -Md 1 -Ms 0 -Mt 806 -P arp -Po REPLY -Pms 0 -Ps 0 -Pmd 1 -Pd 1 
r -t 1.011070593 -Hs 1 -Hd -2 -Ni 1 -Nx 350.00 -Ny 200.00 -Nz 100.00 -Ne -1.000000 -Nl MAC -Nw --- -Ma 13a -Md 1 -Ms 0 -Mt 806 -P arp -Po REPLY -Pms 0 -Ps 0 -Pmd 1 -Pd 1 
s -t 1.011080593 -Hs 1 -Hd -2 -Ni 1 -Nx 350.00 -Ny 200.00 -Nz 100.00 -Ne -1.000000 -Nl MAC -Nw --- -Ma 0 -Md 0 -Ms 0 -Mt 0 
r -t 1.011385760 -Hs 0 -Hd -2 -Ni 0 -Nx 0.00 -Ny 200.00 -Nz 100.00 -Ne -1.000000 -Nl MAC -Nw --- -Ma 0 -Md 0 -Ms 0 -Mt 0 
s -t 1.011814593 -Hs 1 -Hd -2 -Ni 1 -Nx 350.00 -Ny 200.00 -Nz 100.00 -Ne -1.000000 -Nl MAC -Nw --- -Ma 5ae -Md 0 -Ms 1 -Mt 0 
r -t 1.012167760 -Hs 0 -Hd -2 -Ni 0 -Nx 0.00 -Ny 200.00 -Nz 100.00 -Ne -1.000000 -Nl MAC -Nw --- -Ma 5ae -Md 0 -Ms 1 -Mt 0 
s -t 1.012177760 -Hs 0 -Hd -2 -Ni 0 -Nx 0.00 -Ny 200.00 -Nz 100.00 -Ne -1.000000 -Nl MAC -Nw --- -Ma 474 -Md 1 -Ms 0 -Mt 0 
r -t 1.012482927 -Hs 1 -Hd -2 -Ni 1 -Nx 350.00 -Ny 200.00 -Nz 100.00 -Ne -1.000000 -Nl MAC -Nw --- -Ma 474 -Md 1 -Ms 0 -Mt 0 
s -t 1.012492927 -Hs 1 -Hd 0 -Ni 1 -Nx 350.00 -Ny 200.00 -Nz 100.00 -Ne -1.000000 -Nl MAC -Nw --- -Ma 13a -Md 0 -Ms 1 -Mt 800 -Is 2.255 -Id 0.255 -It AODV -Il 102 -If 0 -Ii 0 -Iv 29 -P aodv -Pt 0x4 -Ph 2 -Pd 2 -Pds 4 -Pl 10.000000 -Pc REPLY 
r -t 1.013310093 -Hs 0 -Hd 0 -Ni 0 -Nx 0.00 -Ny 200.00 -Nz 100.00 -Ne -1.000000 -Nl MAC -Nw --- -Ma 13a -Md 0 -Ms 1 -Mt 800 -Is 2.255 -Id 0.255 -It AODV -Il 44 -If 0 -Ii 0 -Iv 29 -P aodv -Pt 0x4 -Ph 2 -Pd 2 -Pds 4 -Pl 10.000000 -Pc REPLY 
s -t 1.013320093 -Hs 0 -Hd -2 -Ni 0 -Nx 0.00 -Ny 200.00 -Nz 100.00 -Ne -1.000000 -Nl MAC -Nw --- -Ma 0 -Md 1 -Ms 0 -Mt 0 
r -t 1.013335093 -Hs 0 -Hd 0 -Ni 0 -Nx 0.00 -Ny 200.00 -Nz 100.00 -Ne -1.000000 -Nl RTR -Nw --- -Ma 13a -Md 0 -Ms 1 -Mt 800 -Is 2.255 -Id 0.255 -It AODV -Il 44 -If 0 -Ii 0 -Iv 29 -P aodv -Pt 0x4 -Ph 2 -Pd 2 -Pds 4 -Pl 10.000000 -Pc REPLY 
s -t 1.013335093 -Hs 0 -Hd 1 -Ni 0 -Nx 0.00 -Ny 200.00 -Nz 100.00 -Ne -1.000000 -Nl RTR -Nw --- -Ma 0 -Md 0 -Ms 0 -Mt 0 -Is 0.0 -Id 2.0 -It cbr -Il 532 -If 0 -Ii 0 -Iv 30 -Pn cbr -Pi 0 -Pf 0 -Po 0 
r -t 1.013625260 -Hs 1 -Hd -2 -Ni 1 -Nx 350.00 -Ny 200.00 -Nz 100.00 -Ne -1.000000 -Nl MAC -Nw --- -Ma 0 -Md 1 -Ms 0 -Mt 0 
s -t 1.013914093 -Hs 0 -Hd -2 -Ni 0 -Nx 0.00 -Ny 200.00 -Nz 100.00 -Ne -1.000000 -Nl MAC -Nw --- -Ma 14ee -Md 1 -Ms 0 -Mt 0 
r -t 1.014267260 -Hs 1 -Hd -2 -Ni 1 -Nx 350.00 -Ny 200.00 -Nz 100.00 -Ne -1.000000 -Nl MAC -Nw --- -Ma 14ee -Md 1 -Ms 0 -Mt 0 
s -t 1.014277260 -Hs 1 -Hd -2 -Ni 1 -Nx 350.00 -Ny 200.00 -Nz 100.00 -Ne -1.000000 -Nl MAC -Nw --- -Ma 13b4 -Md 0 -Ms 0 -Mt 0 
r -t 1.014582427 -Hs 0 -Hd -2 -Ni 0 -Nx 0.00 -Ny 200.00 -Nz 100.00 -Ne -1.000000 -Nl MAC -Nw --- -Ma 13b4 -Md 0 -Ms 0 -Mt 0 
s -t 1.014592427 -Hs 0 -Hd 1 -Ni 0 -Nx 0.00 -Ny 200.00 -Nz 100.00 -Ne -1.000000 -Nl MAC -Nw --- -Ma 13a -Md 1 -Ms 0 -Mt 800 -Is 0.0 -Id 2.0 -It cbr -Il 590 -If 0 -Ii 0 -Iv 30 -Pn cbr -Pi 0 -Pf 0 -Po 0 
r -t 1.019313593 -Hs 1 -Hd 1 -Ni 1 -Nx 350.00 -Ny 200.00 -Nz 100.00 -Ne -1.000000 -Nl MAC -Nw --- -Ma 13a -Md 1 -Ms 0 -Mt 800 -Is 0.0 -Id 2.0 -It cbr -Il 532 -If 0 -Ii 0 -Iv 30 -Pn cbr -Pi 0 -Pf 1 -Po 0 
s -t 1.019323593 -Hs 1 -Hd -2 -Ni 1 -Nx 350.00 -Ny 200.00 -Nz 100.00 -Ne -1.000000 -Nl MAC -Nw --- -Ma 0 -Md 0 -Ms 0 -Mt 0 
r -t 1.019338593 -Hs 1 -Hd 1 -Ni 1 -Nx 350.00 -Ny 200.00 -Nz 100.00 -Ne -1.000000 -Nl RTR -Nw --- -Ma 13a -Md 1 -Ms 0 -Mt 800 -Is 0.0 -Id 2.0 -It cbr -Il 532 -If 0 -Ii 0 -Iv 30 -Pn cbr -Pi 0 -Pf 1 -Po 0 
f -t 1.019338593 -Hs 1 -Hd 2 -Ni 1 -Nx 350.00 -Ny 200.00 -Nz 100.00 -Ne -1.000000 -Nl RTR -Nw --- -Ma 13a -Md 1 -Ms 0 -Mt 800 -Is 0.0 -Id 2.0 -It cbr -Il 532 -If 0 -Ii 0 -Iv 29 -Pn cbr -Pi 0 -Pf 1 -Po 0 
r -t 1.019628760 -Hs 0 -Hd -2 -Ni 0 -Nx 0.00 -Ny 200.00 -Nz 100.00 -Ne -1.000000 -Nl MAC -Nw --- -Ma 0 -Md 0 -Ms 0 -Mt 0 
s -t 1.020157593 -Hs 1 -Hd -2 -Ni 1 -Nx 350.00 -Ny 200.00 -Nz 100.00 -Ne -1.000000 -Nl MAC -Nw --- -Ma 14ee -Md 2 -Ms 1 -Mt 0 
r -t 1.020510760 -Hs 2 -Hd -2 -Ni 2 -Nx 700.00 -Ny 200.00 -Nz 100.00 -Ne -1.000000 -Nl MAC -Nw --- -Ma 14ee -Md 2 -Ms 1 -Mt 0 
s -t 1.020520760 -Hs 2 -Hd -2 -Ni 2 -Nx 700.00 -Ny 200.00 -Nz 100.00 -Ne -1.000000 -Nl MAC -Nw --- -Ma 13b4 -Md 1 -Ms 0 -Mt 0 
r -t 1.020825927 -Hs 1 -Hd -2 -Ni 1 -Nx 350.00 -Ny 200.00 -Nz 100.00 -Ne -1.000000 -Nl MAC -Nw --- -Ma 13b4 -Md 1 -Ms 0 -Mt 0 
s -t 1.020835927 -Hs 1 -Hd 2 -Ni 1 -Nx 350.00 -Ny 200.00 -Nz 100.00 -Ne -1.000000 -Nl MAC -Nw --- -Ma 13a -Md 2 -Ms 1 -Mt 800 -Is 0.0 -Id 2.0 -It cbr -Il 590 -If 0 -Ii 0 -Iv 29 -Pn cbr -Pi 0 -Pf 1 -Po 0 
r -t 1.025557093 -Hs 2 -Hd 2 -Ni 2 -Nx 700.00 -Ny 200.00 -Nz 100.00 -Ne -1.000000 -Nl MAC -Nw --- -Ma 13a -Md 2 -Ms 1 -Mt 800 -Is 0.0 -Id 2.0 -It cbr -Il 532 -If 0 -Ii 0 -Iv 29 -Pn cbr -Pi 0 -Pf 2 -Po 0 
s -t 1.025567093 -Hs 2 -Hd -2 -Ni 2 -Nx 700.00 -Ny 200.00 -Nz 100.00 -Ne -1.000000 -Nl MAC -Nw --- -Ma 0 -Md 1 -Ms 0 -Mt 0 
r -t 1.025582093 -Hs 2 -Hd 2 -Ni 2 -Nx 700.00 -Ny 200.00 -Nz 100.00 -Ne -1.000000 -Nl AGT -Nw --- -Ma 13a -Md 2 -Ms 1 -Mt 800 -Is 0.0 -Id 2.0 -It cbr -Il 532 -If 0 -Ii 0 -Iv 29 -Pn cbr -Pi 0 -Pf 2 -Po 0 
r -t 1.025872260 -Hs 1 -Hd -2 -Ni 1 -Nx 350.00 -Ny 200.00 -Nz 100.00 -Ne -1.000000 -Nl MAC -Nw --- -Ma 0 -Md 1 -Ms 0 -Mt 0 
s -t 1.100000000 -Hs 0 -Hd -2 -Ni 0 -Nx 0.00 -Ny 200.00 -Nz 100.00 -Ne -1.000000 -Nl AGT -Nw --- -Ma 0 -Md 0 -Ms 0 -Mt 0 -Is 0.0 -Id 2.0 -It cbr -Il 512 -If 0 -Ii 1 -Iv 32 -Pn cbr -Pi 1 -Pf 0 -Po 0 
r -t 1.100000000 -Hs 0 -Hd -2 -Ni 0 -Nx 0.00 -Ny 200.00 -Nz 100.00 -Ne -1.000000 -Nl RTR -Nw --- -Ma 0 -Md 0 -Ms 0 -Mt 0 -Is 0.0 -Id 2.0 -It cbr -Il 512 -If 0 -Ii 1 -Iv 32 -Pn cbr -Pi 1 -Pf 0 -Po 0 
s -t 1.100000000 -Hs 0 -Hd 1 -Ni 0 -Nx 0.00 -Ny 200.00 -Nz 100.00 -Ne -1.000000 -Nl RTR -Nw --- -Ma 0 -Md 0 -Ms 0 -Mt 0 -Is 0.0 -Id 2.0 -It cbr -Il 532 -If 0 -Ii 1 -Iv 30 -Pn cbr -Pi 1 -Pf 0 -Po 0 
s -t 1.100275000 -Hs 0 -Hd -2 -Ni 0 -Nx 0.00 -Ny 200.00 -Nz 100.00 -Ne -1.000000 -Nl MAC -Nw --- -Ma 14ee -Md 1 -Ms 0 -Mt 0 
r -t 1.100628167 -Hs 1 -Hd -2 -Ni 1 -Nx 350.00 -Ny 200.00 -Nz 100.00 -Ne -1.000000 -Nl MAC -Nw --- -Ma 14ee -Md 1 -Ms 0 -Mt 0 
s -t 1.100638167 -Hs 1 -Hd -2 -Ni 1 -Nx 350.00 -Ny 200.00 -Nz 100.00 -Ne -1.000000 -Nl MAC -Nw --- -Ma 13b4 -Md 0 -Ms 0 -Mt 0 
r -t 1.100943333 -Hs 0 -Hd -2 -Ni 0 -Nx 0.00 -Ny 200.00 -Nz 100.00 -Ne -1.000000 -Nl MAC -Nw --- -Ma 13b4 -Md 0 -Ms 0 -Mt 0 
s -t 1.100953333 -Hs 0 -Hd 1 -Ni 0 -Nx 0.00 -Ny 200.00 -Nz 100.00 -Ne -1.000000 -Nl MAC -Nw --- -Ma 13a -Md 1 -Ms 0 -Mt 800 -Is 0.0 -Id 2.0 -It cbr -Il 590 -If 0 -Ii 1 -Iv 30 -Pn cbr -Pi 1 -Pf 0 -Po 0 
r -t 1.105674500 -Hs 1 -Hd 1 -Ni 1 -Nx 350.00 -Ny 200.00 -Nz 100.00 -Ne -1.000000 -Nl MAC -Nw --- -Ma 13a -Md 1 -Ms 0 -Mt 800 -Is 0.0 -Id 2.0 -It cbr -Il 532 -If 0 -Ii 1 -Iv 30 -Pn cbr -Pi 1 -Pf 1 -Po 0 
s -t 1.105684500 -Hs 1 -Hd -2 -Ni 1 -Nx 350.00 -Ny 200.00 -Nz 100.00 -Ne -1.000000 -Nl MAC -Nw --- -Ma 0 -Md 0 -Ms 0 -Mt 0 
r -t 1.105699500 -Hs 1 -Hd 1 -Ni 1 -Nx 350.00 -Ny 200.00 -Nz 100.00 -Ne -1.000000 -Nl RTR -Nw --- -Ma 13a -Md 1 -Ms 0 -Mt 800 -Is 0.0 -Id 2.0 -It cbr -Il 532 -If 0 -Ii 1 -Iv 30 -Pn cbr -Pi 1 -Pf 1 -Po 0 
f -t 1.105699500 -Hs 1 -Hd 2 -Ni 1 -Nx 350.00 -Ny 200.00 -Nz 100.00 -Ne -1.000000 -Nl RTR -Nw --- -Ma 13a -Md 1 -Ms 0 -Mt 800 -Is 0.0 -Id 2.0 -It cbr -Il 532 -If 0 -Ii 1 -Iv 29 -Pn cbr -Pi 1 -Pf 1 -Po 0 
r -t 1.105989667 -Hs 0 -Hd -2 -Ni 0 -Nx 0.00 -Ny 200.00 -Nz 100.00 -Ne -1.000000 -Nl MAC -Nw --- -Ma 0 -Md 0 -Ms 0 -Mt 0 
s -t 1.106258500 -Hs 1 -Hd -2 -Ni 1 -Nx 350.00 -Ny 200.00 -Nz 100.00 -Ne -1.000000 -Nl MAC -Nw --- -Ma 14ee -Md 2 -Ms 1 -Mt 0 
r -t 1.106611667 -Hs 2 -Hd -2 -Ni 2 -Nx 700.00 -Ny 200.00 -Nz 100.00 -Ne -1.000000 -Nl MAC -Nw --- -Ma 14ee -Md 2 -Ms 1 -Mt 0 
s -t 1.106621667 -Hs 2 -Hd -2 -Ni 2 -Nx 700.00 -Ny 200.00 -Nz 100.00 -Ne -1.000000 -Nl MAC -Nw --- -Ma 13b4 -Md 1 -Ms 0 -Mt 0 
r -t 1.106926833 -Hs 1 -Hd -2 -Ni 1 -Nx 350.00 -Ny 200.00 -Nz 100.00 -Ne -1.000000 -Nl MAC -Nw --- -Ma 13b4 -Md 1 -Ms 0 -Mt 0 
s -t 1.106936833 -Hs 1 -Hd 2 -Ni 1 -Nx 350.00 -Ny 200.00 -Nz 100.00 -Ne -1.000000 -Nl MAC -Nw --- -Ma 13a -Md 2 -Ms 1 -Mt 800 -Is 0.0 -Id 2.0 -It cbr -Il 590 -If 0 -Ii 1 -Iv 29 -Pn cbr -Pi 1 -Pf 1 -Po 0 
r -t 1.111658000 -Hs 2 -Hd 2 -Ni 2 -Nx 700.00 -Ny 200.00 -Nz 100.00 -Ne -1.000000 -Nl MAC -Nw --- -Ma 13a -Md 2 -Ms 1 -Mt 800 -Is 0.0 -Id 2.0 -It cbr -Il 532 -If 0 -Ii 1 -Iv 29 -Pn cbr -Pi 1 -Pf 2 -Po 0 
s -t 1.111668000 -Hs 2 -Hd -2 -Ni 2 -Nx 700.00 -Ny 200.00 -Nz 100.00 -Ne -1.000000 -Nl MAC -Nw --- -Ma 0 -Md 1 -Ms 0 -Mt 0 
r -t 1.111683000 -Hs 2 -Hd 2 -Ni 2 -Nx 700.00 -Ny 200.00 -Nz 100.00 -Ne -1.000000 -Nl AGT -Nw --- -Ma 13a -Md 2 -Ms 1 -Mt 800 -Is 0.0 -Id 2.0 -It cbr -Il 532 -If 0 -Ii 1 -Iv 29 -Pn cbr -Pi 1 -Pf 2 -Po 0 
r -t 1.111973167 -Hs 1 -Hd -2 -Ni 1 -Nx 350.00 -Ny 200.00 -Nz 100.00 -Ne -1.000000 -Nl MAC -Nw --- -Ma 0 -Md 1 -Ms 0 -Mt 0 
s -t 1.200000000 -Hs 0 -Hd -2 -Ni 0 -Nx 0.00 -Ny 200.00 -Nz 100.00 -Ne -1.000000 -Nl AGT -Nw --- -Ma 0 -Md 0 -Ms 0 -Mt 0 -Is 0.0 -Id 2.0 -It cbr -Il 512 -If 0 -Ii 2 -Iv 32 -Pn cbr -Pi 2 -Pf 0 -Po 0 
r -t 1.200000000 -Hs 0 -Hd -2 -Ni 0 -Nx 0.00 -Ny 200.00 -Nz 100.00 -Ne -1.000000 -Nl RTR -Nw --- -Ma 0 -Md 0 -Ms 0 -Mt 0 -Is 0.0 -Id 2.0 -It cbr -Il 512 -If 0 -Ii 2 -Iv 32 -Pn cbr -Pi 2 -Pf 0 -Po 0 
s -t 1.200000000 -Hs 0 -Hd 1 -Ni 0 -Nx 0.00 -Ny 200.00 -Nz 100.00 -Ne -1.000000 -Nl RTR -Nw --- -Ma 0 -Md 0 -Ms 0 -Mt 0 -Is 0.0 -Id 2.0 -It cbr -Il 532 -If 0 -Ii 2 -Iv 30 -Pn cbr -Pi 2 -Pf 0 -Po 0 
s -t 1.200515000 -Hs 0 -Hd -2 -Ni 0 -Nx 0.00 -Ny 200.00 -Nz 100.00 -Ne -1.000000 -Nl MAC -Nw --- -Ma 14ee -Md 1 -Ms 0 -Mt 0 
r -t 1.200868167 -Hs 1 -Hd -2 -Ni 1 -Nx 350.00 -Ny 200.00 -Nz 100.00 -Ne -1.000000 -Nl MAC -Nw --- -Ma 14ee -Md 1 -Ms 0 -Mt 0 
s -t 1.200878167 -Hs 1 -Hd -2 -Ni 1 -Nx 350.00 -Ny 200.00 -Nz 100.00 -Ne -1.000000 -Nl MAC -Nw --- -Ma 13b4 -Md 0 -Ms 0 -Mt 0 
r -t 1.201183333 -Hs 0 -Hd -2 -Ni 0 -Nx 0.00 -Ny 200.00 -Nz 100.00 -Ne -1.000000 -Nl MAC -Nw --- -Ma 13b4 -Md 0 -Ms 0 -Mt 0 
s -t 1.201193333 -Hs 0 -Hd 1 -Ni 0 -Nx 0.00 -Ny 200.00 -Nz 100.00 -Ne -1.000000 -Nl MAC -Nw --- -Ma 13a -Md 1 -Ms 0 -Mt 800 -Is 0.0 -Id 2.0 -It cbr -Il 590 -If 0 -Ii 2 -Iv 30 -Pn cbr -Pi 2 -Pf 0 -Po 0 
r -t 1.205914500 -Hs 1 -Hd 1 -Ni 1 -Nx 350.00 -Ny 200.00 -Nz 100.00 -Ne -1.000000 -Nl MAC -Nw --- -Ma 13a -Md 1 -Ms 0 -Mt 800 -Is 0.0 -Id 2.0 -It cbr -Il 532 -If 0 -Ii 2 -Iv 30 -Pn cbr -Pi 2 -Pf 1 -Po 0 
s -t 1.205924500 -Hs 1 -Hd -2 -Ni 1 -Nx 350.00 -Ny 200.00 -Nz 100.00 -Ne -1.000000 -Nl MAC -Nw --- -Ma 0 -Md 0 -Ms 0 -Mt 0 
r -t 1.205939500 -Hs 1 -Hd 1 -Ni 1 -Nx 350.00 -Ny 200.00 -Nz 100.00 -Ne -1.000000 -Nl RTR -Nw --- -Ma 13a -Md 1 -Ms 0 -Mt 800 -Is 0.0 -Id 2.0 -It cbr -Il 532 -If 0 -Ii 2 -Iv 30 -Pn cbr -Pi 2 -Pf 1 -Po 0 
f -t 1.205939500 -Hs 1 -Hd 2 -Ni 1 -Nx 350.00 -Ny 200.00 -Nz 100.00 -Ne -1.000000 -Nl RTR -Nw --- -Ma 13a -Md 1 -Ms 0 -Mt 800 -Is 0.0 -Id 2.0 -It cbr -Il 532 -If 0 -Ii 2 -Iv 29 -Pn cbr -Pi 2 -Pf 1 -Po 0 
r -t 1.206229667 -Hs 0 -Hd -2 -Ni 0 -Nx 0.00 -Ny 200.00 -Nz 100.00 -Ne -1.000000 -Nl MAC -Nw --- -Ma 0 -Md 0 -Ms 0 -Mt 0 
s -t 1.206458500 -Hs 1 -Hd -2 -Ni 1 -Nx 350.00 -Ny 200.00 -Nz 100.00 -Ne -1.000000 -Nl MAC -Nw --- -Ma 14ee -Md 2 -Ms 1 -Mt 0 
r -t 1.206811667 -Hs 2 -Hd -2 -Ni 2 -Nx 700.00 -Ny 200.00 -Nz 100.00 -Ne -1.000000 -Nl MAC -Nw --- -Ma 14ee -Md 2 -Ms 1 -Mt 0 
s -t 1.206821667 -Hs 2 -Hd -2 -Ni 2 -Nx 700.00 -Ny 200.00 -Nz 100.00 -Ne -1.000000 -Nl MAC -Nw --- -Ma 13b4 -Md 1 -Ms 0 -Mt 0 
r -t 1.207126833 -Hs 1 -Hd -2 -Ni 1 -Nx 350.00 -Ny 200.00 -Nz 100.00 -Ne -1.000000 -Nl MAC -Nw --- -Ma 13b4 -Md 1 -Ms 0 -Mt 0 
s -t 1.207136833 -Hs 1 -Hd 2 -Ni 1 -Nx 350.00 -Ny 200.00 -Nz 100.00 -Ne -1.000000 -Nl MAC -Nw --- -Ma 13a -Md 2 -Ms 1 -Mt 800 -Is 0.0 -Id 2.0 -It cbr -Il 590 -If 0 -Ii 2 -Iv 29 -Pn cbr -Pi 2 -Pf 1 -Po 0 
r -t 1.211858000 -Hs 2 -Hd 2 -Ni 2 -Nx 700.00 -Ny 200.00 -Nz 100.00 -Ne -1.000000 -Nl MAC -Nw --- -Ma 13a -Md 2 -Ms 1 -Mt 800 -Is 0.0 -Id 2.0 -It cbr -Il 532 -If 0 -Ii 2 -Iv 29 -Pn cbr -Pi 2 -Pf 2 -Po 0 
s -t 1.211868000 -Hs 2 -Hd -2 -Ni 2 -Nx 700.00 -Ny 200.00 -Nz 100.00 -Ne -1.000000 -Nl MAC -Nw --- -Ma 0 -Md 1 -Ms 0 -Mt 0 
r -t 1.211883000 -Hs 2 -Hd 2 -Ni 2 -Nx 700.00 -Ny 200.00 -Nz 100.00 -Ne -1.000000 -Nl AGT -Nw --- -Ma 13a -Md 2 -Ms 1 -Mt 800 -Is 0.0 -Id 2.0 -It cbr -Il 532 -If 0 -Ii 2 -Iv 29 -Pn cbr -Pi 2 -Pf 2 -Po 0 
r -t 1.212173167 -Hs 1 -Hd -2 -Ni 1 -Nx 350.00 -Ny 200.00 -Nz 100.00 -Ne -1.000000 -Nl MAC -Nw --- -Ma 0 -Md 1 -Ms 0 -Mt 0 
s -t 1.300000000 -Hs 0 -Hd -2 -Ni 0 -Nx 0.00 -Ny 200.00 -Nz 100.00 -Ne -1.000000 -Nl AGT -Nw --- -Ma 0 -Md 0 -Ms 0 -Mt 0 -Is 0.0 -Id 2.0 -It cbr -Il 512 -If 0 -Ii 3 -Iv 32 -Pn cbr -Pi 3 -Pf 0 -Po 0 
r -t 1.300000000 -Hs 0 -Hd -2 -Ni 0 -Nx 0.00 -Ny 200.00 -Nz 100.00 -Ne -1.000000 -Nl RTR -Nw --- -Ma 0 -Md 0 -Ms 0 -Mt 0 -Is 0.0 -Id 2.0 -It cbr -Il 512 -If 0 -Ii 3 -Iv 32 -Pn cbr -Pi 3 -Pf 0 -Po 0 
s -t 1.300000000 -Hs 0 -Hd 1 -Ni 0 -Nx 0.00 -Ny 200.00 -Nz 100.00 -Ne -1.000000 -Nl RTR -Nw --- -Ma 0 -Md 0 -Ms 0 -Mt 0 -Is 0.0 -Id 2.0 -It cbr -Il 532 -If 0 -Ii 3 -Iv 30 -Pn cbr -Pi 3 -Pf 0 -Po 0 
s -t 1.300615000 -Hs 0 -Hd -2 -Ni 0 -Nx 0.00 -Ny 200.00 -Nz 100.00 -Ne -1.000000 -Nl MAC -Nw --- -Ma 14ee -Md 1 -Ms 0 -Mt 0 
r -t 1.300968167 -Hs 1 -Hd -2 -Ni 1 -Nx 350.00 -Ny 200.00 -Nz 100.00 -Ne -1.000000 -Nl MAC -Nw --- -Ma 14ee -Md 1 -Ms 0 -Mt 0 
s -t 1.300978167 -Hs 1 -Hd -2 -Ni 1 -Nx 350.00 -Ny 200.00 -Nz 100.00 -Ne -1.000000 -Nl MAC -Nw --- -Ma 13b4 -Md 0 -Ms 0 -Mt 0 
r -t 1.301283333 -Hs 0 -Hd -2 -Ni 0 -Nx 0.00 -Ny 200.00 -Nz 100.00 -Ne -1.000000 -Nl MAC -Nw --- -Ma 13b4 -Md 0 -Ms 0 -Mt 0 
s -t 1.301293333 -Hs 0 -Hd 1 -Ni 0 -Nx 0.00 -Ny 200.00 -Nz 100.00 -Ne -1.000000 -Nl MAC -Nw --- -Ma 13a -Md 1 -Ms 0 -Mt 800 -Is 0.0 -Id 2.0 -It cbr -Il 590 -If 0 -Ii 3 -Iv 30 -Pn cbr -Pi 3 -Pf 0 -Po 0 
r -t 1.306014500 -Hs 1 -Hd 1 -Ni 1 -Nx 350.00 -Ny 200.00 -Nz 100.00 -Ne -1.000000 -Nl MAC -Nw --- -Ma 13a -Md 1 -Ms 0 -Mt 800 -Is 0.0 -Id 2.0 -It cbr -Il 532 -If 0 -Ii 3 -Iv 30 -Pn cbr -Pi 3 -Pf 1 -Po 0 
s -t 1.306024500 -Hs 1 -Hd -2 -Ni 1 -Nx 350.00 -Ny 200.00 -Nz 100.00 -Ne -1.000000 -Nl MAC -Nw --- -Ma 0 -Md 0 -Ms 0 -Mt 0 
r -t 1.306039500 -Hs 1 -Hd 1 -Ni 1 -Nx 350.00 -Ny 200.00 -Nz 100.00 -Ne -1.000000 -Nl RTR -Nw --- -Ma 13a -Md 1 -Ms 0 -Mt 800 -Is 0.0 -Id 2.0 -It cbr -Il 532 -If 0 -Ii 3 -Iv 30 -Pn cbr -Pi 3 -Pf 1 -Po 0 
f -t 1.306039500 -Hs 1 -Hd 2 -Ni 1 -Nx 350.00 -Ny 200.00 -Nz 100.00 -Ne -1.000000 -Nl RTR -Nw --- -Ma 13a -Md 1 -Ms 0 -Mt 800 -Is 0.0 -Id 2.0 -It cbr -Il 532 -If 0 -Ii 3 -Iv 29 -Pn cbr -Pi 3 -Pf 1 -Po 0 
r -t 1.306329667 -Hs 0 -Hd -2 -Ni 0 -Nx 0.00 -Ny 200.00 -Nz 100.00 -Ne -1.000000 -Nl MAC -Nw --- -Ma 0 -Md 0 -Ms 0 -Mt 0 
s -t 1.306738500 -Hs 1 -Hd -2 -Ni 1 -Nx 350.00 -Ny 200.00 -Nz 100.00 -Ne -1.000000 -Nl MAC -Nw --- -Ma 14ee -Md 2 -Ms 1 -Mt 0 
r -t 1.307091667 -Hs 2 -Hd -2 -Ni 2 -Nx 700.00 -Ny 200.00 -Nz 100.00 -Ne -1.000000 -Nl MAC -Nw --- -Ma 14ee -Md 2 -Ms 1 -Mt 0 
s -t 1.307101667 -Hs 2 -Hd -2 -Ni 2 -Nx 700.00 -Ny 200.00 -Nz 100.00 -Ne -1.000000 -Nl MAC -Nw --- -Ma 13b4 -Md 1 -Ms 0 -Mt 0 
r -t 1.307406833 -Hs 1 -Hd -2 -Ni 1 -Nx 350.00 -Ny 200.00 -Nz 100.00 -Ne -1.000000 -Nl MAC -Nw --- -Ma 13b4 -Md 1 -Ms 0 -Mt 0 
s -t 1.307416833 -Hs 1 -Hd 2 -Ni 1 -Nx 350.00 -Ny 200.00 -Nz 100.00 -Ne -1.000000 -Nl MAC -Nw --- -Ma 13a -Md 2 -Ms 1 -Mt 800 -Is 0.0 -Id 2.0 -It cbr -Il 590 -If 0 -Ii 3 -Iv 29 -Pn cbr -Pi 3 -Pf 1 -Po 0 
r -t 1.312138000 -Hs 2 -Hd 2 -Ni 2 -Nx 700.00 -Ny 200.00 -Nz 100.00 -Ne -1.000000 -Nl MAC -Nw --- -Ma 13a -Md 2 -Ms 1 -Mt 800 -Is 0.0 -Id 2.0 -It cbr -Il 532 -If 0 -Ii 3 -Iv 29 -Pn cbr -Pi 3 -Pf 2 -Po 0 
s -t 1.312148000 -Hs 2 -Hd -2 -Ni 2 -Nx 700.00 -Ny 200.00 -Nz 100.00 -Ne -1.000000 -Nl MAC -Nw --- -Ma 0 -Md 1 -Ms 0 -Mt 0 
r -t 1.312163000 -Hs 2 -Hd 2 -Ni 2 -Nx 700.00 -Ny 200.00 -Nz 100.00 -Ne -1.000000 -Nl AGT -Nw --- -Ma 13a -Md 2 -Ms 1 -Mt 800 -Is 0.0 -Id 2.0 -It cbr -Il 532 -If 0 -Ii 3 -Iv 29 -Pn cbr -Pi 3 -Pf 2 -Po 0 
r -t 1.312453167 -Hs 1 -Hd -2 -Ni 1 -Nx 350.00 -Ny 200.00 -Nz 100.00 -Ne -1.000000 -Nl MAC -Nw --- -Ma 0 -Md 1 -Ms 0 -Mt 0 
s -t 1.400000000 -Hs 0 -Hd -2 -Ni 0 -Nx 0.00 -Ny 200.00 -Nz 100.00 -Ne -1.000000 -Nl AGT -Nw --- -Ma 0 -Md 0 -Ms 0 -Mt 0 -Is 0.0 -Id 2.0 -It cbr -Il 512 -If 0 -Ii 4 -Iv 32 -Pn cbr -Pi 4 -Pf 0 -Po 0 
r -t 1.400000000 -Hs 0 -Hd -2 -Ni 0 -Nx 0.00 -Ny 200.00 -Nz 100.00 -Ne -1.000000 -Nl RTR -Nw --- -Ma 0 -Md 0 -Ms 0 -Mt 0 -Is 0.0 -Id 2.0 -It cbr -Il 512 -If 0 -Ii 4 -Iv 32 -Pn cbr -Pi 4 -Pf 0 -Po 0 
s -t 1.400000000 -Hs 0 -Hd 1 -Ni 0 -Nx 0.00 -Ny 200.00 -Nz 100.00 -Ne -1.000000 -Nl RTR -Nw --- -Ma 0 -Md 0 -Ms 0 -Mt 0 -Is 0.0 -Id 2.0 -It cbr -Il 532 -If 0 -Ii 4 -Iv 30 -Pn cbr -Pi 4 -Pf 0 -Po 0 
s -t 1.400435000 -Hs 0 -Hd -2 -Ni 0 -Nx 0.00 -Ny 200.00 -Nz 100.00 -Ne -1.000000 -Nl MAC -Nw --- -Ma 14ee -Md 1 -Ms 0 -Mt 0 
r -t 1.400788167 -Hs 1 -Hd -2 -Ni 1 -Nx 350.00 -Ny 200.00 -Nz 100.00 -Ne -1.000000 -Nl MAC -Nw --- -Ma 14ee -Md 1 -Ms 0 -Mt 0 
s -t 1.400798167 -Hs 1 -Hd -2 -Ni 1 -Nx 350.00 -Ny 200.00 -Nz 100.00 -Ne -1.000000 -Nl MAC -Nw --- -Ma 13b4 -Md 0 -Ms 0 -Mt 0 
r -t 1.401103333 -Hs 0 -Hd -2 -Ni 0 -Nx 0.00 -Ny 200.00 -Nz 100.00 -Ne -1.000000 -Nl MAC -Nw --- -Ma 13b4 -Md 0 -Ms 0 -Mt 0 
s -t 1.401113333 -Hs 0 -Hd 1 -Ni 0 -Nx 0.00 -Ny 200.00 -Nz 100.00 -Ne -1.000000 -Nl MAC -Nw --- -Ma 13a -Md 1 -Ms 0 -Mt 800 -Is 0.0 -Id 2.0 -It cbr -Il 590 -If 0 -Ii 4 -Iv 30 -Pn cbr -Pi 4 -Pf 0 -Po 0 
r -t 1.405834500 -Hs 1 -Hd 1 -Ni 1 -Nx 350.00 -Ny 200.00 -Nz 100.00 -Ne -1.000000 -Nl MAC -Nw --- -Ma 13a -Md 1 -Ms 0 -Mt 800 -Is 0.0 -Id 2.0 -It cbr -Il 532 -If 0 -Ii 4 -Iv 30 -Pn cbr -Pi 4 -Pf 1 -Po 0 
s -t 1.405844500 -Hs 1 -Hd -2 -Ni 1 -Nx 350.00 -Ny 200.00 -Nz 100.00 -Ne -1.000000 -Nl MAC -Nw --- -Ma 0 -Md 0 -Ms 0 -Mt 0 
r -t 1.405859500 -Hs 1 -Hd 1 -Ni 1 -Nx 350.00 -Ny 200.00 -Nz 100.00 -Ne -1.000000 -Nl RTR -Nw --- -Ma 13a -Md 1 -Ms 0 -Mt 800 -Is 0.0 -Id 2.0 -It cbr -Il 532 -If 0 -Ii 4 -Iv 30 -Pn cbr -Pi 4 -Pf 1 -Po 0 
f -t 1.405859500 -Hs 1 -Hd 2 -Ni 1 -Nx 350.00 -Ny 200.00 -Nz 100.00 -Ne -1.000000 -Nl RTR -Nw --- -Ma 13a -Md 1 -Ms 0 -Mt 800 -Is 0.0 -Id 2.0 -It cbr -Il 532 -If 0 -Ii 4 -Iv 29 -Pn cbr -Pi 4 -Pf 1 -Po 0 
r -t 1.406149667 -Hs 0 -Hd -2 -Ni 0 -Nx 0.00 -Ny 200.00 -Nz 100.00 -Ne -1.000000 -Nl MAC -Nw --- -Ma 0 -Md 0 -Ms 0 -Mt 0 
s -t 1.406338500 -Hs 1 -Hd -2 -Ni 1 -Nx 350.00 -Ny 200.00 -Nz 100.00 -Ne -1.000000 -Nl MAC -Nw --- -Ma 14ee -Md 2 -Ms 1 -Mt 0 
r -t 1.406691667 -Hs 2 -Hd -2 -Ni 2 -Nx 700.00 -Ny 200.00 -Nz 100.00 -Ne -1.000000 -Nl MAC -Nw --- -Ma 14ee -Md 2 -Ms 1 -Mt 0 
s -t 1.406701667 -Hs 2 -Hd -2 -Ni 2 -Nx 700.00 -Ny 200.00 -Nz 100.00 -Ne -1.000000 -Nl MAC -Nw --- -Ma 13b4 -Md 1 -Ms 0 -Mt 0 
r -t 1.407006833 -Hs 1 -Hd -2 -Ni 1 -Nx 350.00 -Ny 200.00 -Nz 100.00 -Ne -1.000000 -Nl MAC -Nw --- -Ma 13b4 -Md 1 -Ms 0 -Mt 0 
s -t 1.407016833 -Hs 1 -Hd 2 -Ni 1 -Nx 350.00 -Ny 200.00 -Nz 100.00 -Ne -1.000000 -Nl MAC -Nw --- -Ma 13a -Md 2 -Ms 1 -Mt 800 -Is 0.0 -Id 2.0 -It cbr -Il 590 -If 0 -Ii 4 -Iv 29 -Pn cbr -Pi 4 -Pf 1 -Po 0 
r -t 1.411738000 -Hs 2 -Hd 2 -Ni 2 -Nx 700.00 -Ny 200.00 -Nz 100.00 -Ne -1.000000 -Nl MAC -Nw --- -Ma 13a -Md 2 -Ms 1 -Mt 800 -Is 0.0 -Id 2.0 -It cbr -Il 532 -If 0 -Ii 4 -Iv 29 -Pn cbr -Pi 4 -Pf 2 -Po 0 
s -t 1.411748000 -Hs 2 -Hd -2 -Ni 2 -Nx 700.00 -Ny 200.00 -Nz 100.00 -Ne -1.000000 -Nl MAC -Nw --- -Ma 0 -Md 1 -Ms 0 -Mt 0 
r -t 1.411763000 -Hs 2 -Hd 2 -Ni 2 -Nx 700.00 -Ny 200.00 -Nz 100.00 -Ne -1.000000 -Nl AGT -Nw --- -Ma 13a -Md 2 -Ms 1 -Mt 800 -Is 0.0 -Id 2.0 -It cbr -Il 532 -If 0 -Ii 4 -Iv 29 -Pn cbr -Pi 4 -Pf 2 -Po 0 